/*--------------------------------*- C++ -*----------------------------------*\
  =========                 |
  \\      /  F ield         | OpenFOAM: The Open Source CFD Toolbox
   \\    /   O peration     | Website:  https://openfoam.org
    \\  /    A nd           | Version:  13
     \\/     M anipulation  |
\*---------------------------------------------------------------------------*/
FoamFile
{
    format      ascii;
    class       volScalarField;
    location    "184.831886";
    object      T;
}
// * * * * * * * * * * * * * * * * * * * * * * * * * * * * * * * * * * * * * //

dimensions      [0 0 0 1 0 0 0];

internalField   nonuniform List<scalar> 
5712
(
1085.07
1084.95
1084.76
1084.58
1084.29
1084.11
1083.63
1083.48
1083.74
1083.58
1084.26
1084.1
1084.64
1084.48
1084.92
1084.8
1084.16
1083.93
1083.86
1083.55
1083.35
1083.06
1083.08
1082.71
1085.49
1086.18
1085.36
1086.01
1085.2
1085.86
1085.01
1085.63
1084.55
1084.9
1084.23
1084.67
1085.47
1085.09
1083.48
1082.92
1083.18
1082.77
1082.75
1082.28
1082.39
1082.04
1084.17
1083.59
1083.84
1083.4
1084.71
1084.15
1086.96
1087.42
1086.64
1087.11
1086.64
1087.22
1086.26
1086.79
1086.18
1086.96
1085.6
1086.32
1085.15
1085.86
1084.65
1085.37
1084
1083.91
1083.52
1083.48
1082.94
1082.81
1082.56
1082.43
1084.45
1084.6
1085.02
1085.06
1083.11
1083.12
1082.75
1082.83
1082.22
1082.11
1081.89
1081.84
1083.98
1084.22
1083.57
1083.91
1085.35
1086.23
1085.7
1086.7
1085.98
1086.88
1086.19
1087.22
1084.84
1085.69
1085.31
1086.28
1084.39
1085.22
1085
1085.95
1088.07
1089.09
1088.24
1089.25
1087.77
1088.72
1088.08
1089.05
1087.26
1087.99
1087.8
1088.6
1084.69
1083.43
1085.84
1086.71
1087.64
1083.6
1084.93
1086.3
1087.22
1088.23
1083.29
1084.48
1085.63
1086.73
1087.79
1090.03
1090.48
1090.57
1090.97
1089.56
1090.07
1090.25
1090.68
1088.73
1089.31
1089.7
1090.21
1083.87
1084.33
1085.34
1085.96
1086.68
1087.34
1087.76
1088.41
1089.19
1089.85
1083.49
1083.86
1084.83
1085.49
1086.08
1086.84
1087.33
1088.15
1088.9
1089.77
1084.23
1084.98
1083.7
1084.36
1082.92
1083.12
1082.45
1082.55
1085.03
1085.91
1085.55
1086.49
1083.24
1083.91
1082.95
1083.59
1082.07
1082.16
1081.79
1081.86
1084.55
1085.45
1084.25
1085.14
1086.54
1087.62
1088.41
1089.73
1086.96
1088.09
1088.68
1089.98
1086.15
1087.2
1088.14
1089.45
1085.78
1086.84
1087.75
1088.99
1090.59
1090.76
1091.11
1090.69
1090.74
1091.06
1090.28
1090.5
1090.88
1090.46
1090.53
1090.87
1089.65
1089.95
1090.37
1090.12
1090.23
1090.62
1084.89
1085.53
1086.22
1086.63
1087.18
1087.79
1087.95
1088.42
1088.95
1088.91
1089.3
1089.8
1089.84
1090.02
1090.47
1084.37
1085.09
1085.87
1086.36
1087.11
1087.88
1087.72
1088.38
1089.06
1088.82
1089.3
1089.9
1089.83
1090.06
1090.59
1081.92
1081.69
1081.72
1081.42
1082.57
1082.28
1082.33
1081.98
1081.76
1081.26
1081.7
1081.23
1081.63
1081.18
1081.53
1081.1
1081.2
1081.4
1081.08
1081.31
1081.1
1080.94
1081.19
1080.92
1081.7
1081.39
1081.07
1080.82
1080.9
1080.66
1080.85
1080.6
1080.75
1080.3
1080.84
1080.41
1080.7
1080.23
1080.72
1080.29
1080.65
1080.14
1080.54
1080.08
1080.47
1080.05
1080.26
1079.91
1081.37
1081.16
1081.11
1080.88
1082.05
1081.87
1081.74
1081.54
1080.66
1080.39
1080.89
1080.64
1080.85
1080.63
1080.6
1080.41
1081.45
1081.26
1081.16
1081.02
1080.44
1080.17
1080.21
1079.97
1080.29
1079.88
1080.06
1079.81
1080.47
1080.04
1080.28
1079.99
1080.11
1079.74
1079.87
1079.65
1079.91
1079.59
1079.7
1079.51
1080.75
1080.95
1080.35
1080.56
1080.75
1080.97
1080.32
1080.54
1080.76
1080.95
1080.28
1080.47
1081.55
1082.36
1081.05
1080.65
1080.22
1082.51
1081.71
1081.23
1080.85
1080.4
1082.21
1081.43
1080.87
1080.49
1080.17
1081.31
1081.8
1080.92
1081.4
1081.29
1081.76
1080.86
1081.33
1081.22
1081.67
1080.76
1081.19
1082.71
1083.08
1081.86
1082.24
1081.38
1081.77
1081.01
1081.41
1080.59
1081
1082.33
1082.54
1081.53
1081.75
1080.99
1081.25
1080.64
1080.96
1080.36
1080.77
1081.11
1081.17
1080.81
1080.79
1081.83
1081.87
1081.48
1081.4
1080.38
1080.46
1080.63
1080.79
1080.58
1080.49
1080.36
1080.25
1081.2
1081.06
1080.95
1080.79
1080.18
1080.2
1079.98
1079.99
1080.11
1080.31
1079.97
1080.3
1080.34
1080.6
1080.15
1080.52
1079.92
1080.06
1079.81
1080.1
1079.76
1079.88
1079.67
1079.92
1082.47
1083.14
1083.77
1082.23
1082.99
1083.62
1082.39
1083.06
1083.71
1082.12
1082.88
1083.54
1082.26
1082.92
1083.58
1081.95
1082.75
1083.45
1083.59
1084.23
1084.92
1082.77
1083.43
1084.14
1082.3
1083
1083.72
1081.98
1082.67
1083.37
1081.76
1082.6
1083.37
1082.94
1083.63
1084.42
1082.17
1082.87
1083.66
1081.74
1082.49
1083.3
1081.54
1082.33
1083.15
1081.57
1082.45
1083.29
1080.1
1080.37
1081.11
1082.5
1080.23
1080.51
1081.28
1082.68
1080.05
1080.32
1081.07
1082.47
1080.13
1080.43
1081.21
1082.61
1079.98
1080.27
1080.98
1082.34
1079.95
1080.28
1081.04
1082.43
1079.97
1080.34
1081.16
1082.58
1079.89
1080.31
1081.16
1082.59
1079.81
1080.16
1080.91
1082.28
1079.84
1080.21
1080.89
1082.13
1079.93
1080.24
1080.91
1082.19
1079.97
1080.31
1080.94
1082.1
1079.72
1080.11
1080.91
1082.34
1079.72
1080.14
1080.86
1082.12
1079.62
1080.05
1080.88
1082.3
1079.62
1080.07
1080.81
1082.07
1080.12
1080.36
1081.03
1082.33
1080.3
1080.49
1081.06
1082.2
1080.11
1080.35
1081.01
1082.31
1080.29
1080.49
1081.06
1082.19
1080.09
1080.34
1080.99
1082.25
1080.25
1080.48
1081.05
1082.17
1080.08
1080.36
1080.97
1082.15
1080.22
1080.47
1081.03
1082.12
1080.1
1080.4
1080.98
1082.07
1080.57
1080.73
1081.24
1082.05
1080.87
1081.01
1081.53
1082.29
1080.53
1080.71
1081.22
1082.03
1080.84
1080.99
1081.52
1082.28
1080.47
1080.68
1081.21
1082.02
1080.78
1080.96
1081.51
1082.27
1080.39
1080.63
1081.17
1081.99
1080.69
1080.92
1081.48
1082.25
1080.27
1080.56
1081.13
1081.95
1080.6
1080.87
1081.45
1082.23
1080.05
1080.44
1081.07
1081.93
1080.35
1080.73
1081.36
1082.17
1080.16
1080.5
1081.1
1081.94
1080.47
1080.8
1081.41
1082.2
1079.96
1080.38
1081.04
1081.91
1080.23
1080.66
1081.32
1082.14
1079.87
1080.32
1081
1081.88
1080.13
1080.59
1081.28
1082.11
1084.63
1086.35
1087.83
1089.04
1089.98
1084.74
1086.44
1087.92
1089.12
1090.06
1084.62
1086.35
1087.83
1089.04
1089.97
1084.72
1086.43
1087.91
1089.12
1090.05
1084.59
1086.34
1087.82
1089.03
1089.97
1084.64
1086.36
1087.84
1089.05
1089.99
1084.68
1086.41
1087.89
1089.1
1090.04
1084.66
1086.39
1087.88
1089.09
1090.03
1084.58
1086.33
1087.82
1089.03
1089.96
1084.67
1086.46
1087.95
1089.16
1090.1
1084.6
1086.36
1087.85
1089.06
1089.99
1084.69
1086.49
1087.98
1089.19
1090.12
1084.58
1086.33
1087.82
1089.03
1089.97
1084.68
1086.47
1087.97
1089.18
1090.12
1084.55
1086.31
1087.81
1089.02
1089.96
1084.67
1086.47
1087.97
1089.19
1090.13
1084.64
1086.4
1087.88
1089.08
1090.02
1084.77
1086.55
1088.03
1089.24
1090.17
1084.64
1086.4
1087.88
1089.09
1090.03
1084.77
1086.55
1088.03
1089.24
1090.18
1084.64
1086.41
1087.9
1089.11
1090.04
1084.77
1086.56
1088.04
1089.25
1090.19
1084.68
1086.47
1087.96
1089.17
1090.1
1084.79
1086.58
1088.07
1089.28
1090.22
1084.76
1086.55
1088.04
1089.25
1090.19
1092.78
1093.07
1092.65
1092.95
1092.41
1092.75
1092.11
1092.5
1091.82
1092.27
1091.37
1091.89
1091.6
1092.11
1091.13
1091.64
1090.89
1091.35
1096.08
1099.72
1102.79
1105.2
1106.84
1096.03
1099.69
1102.8
1105.22
1106.89
1096.02
1099.69
1102.78
1105.18
1106.83
1095.98
1099.67
1102.78
1105.21
1106.88
1095.91
1099.63
1102.73
1105.15
1106.8
1095.86
1099.61
1102.74
1105.18
1106.86
1095.75
1099.53
1102.67
1105.1
1106.76
1095.72
1099.52
1102.68
1105.14
1106.82
1095.57
1099.41
1102.59
1105.04
1106.71
1095.57
1099.42
1102.61
1105.08
1106.77
1095.18
1099.12
1102.36
1104.86
1106.55
1095.22
1099.16
1102.41
1104.92
1106.62
1095.37
1099.27
1102.48
1104.96
1106.63
1095.4
1099.3
1102.52
1105.01
1106.71
1094.98
1098.97
1102.24
1104.76
1106.46
1095
1098.99
1102.28
1104.81
1106.52
1094.78
1098.8
1102.11
1104.65
1106.36
1094.77
1098.82
1102.14
1104.69
1106.42
1081.24
1081.7
1082.07
1081.55
1082.17
1082.1
1082.08
1081.99
1082.24
1082.12
1082.86
1082.71
1083.17
1083
1082.7
1082.57
1082.52
1082.43
1082.48
1082.4
1081.55
1081.4
1082.61
1083.11
1083.28
1083.32
1082.86
1082.78
1083.39
1082.64
1083.9
1084.68
1082.73
1082.98
1083.58
1082.88
1083.16
1083.19
1082.27
1082.18
1082.47
1082.34
1082.21
1082.07
1082.19
1082.38
1083.05
1082.91
1082.69
1082.56
1081.76
1081.55
1081.86
1081.68
1081.87
1081.94
1082.24
1082.67
1082.24
1080.73
1080.31
1080.12
1080.13
1080.34
1080.8
1080.45
1080.29
1080.34
1080.62
1082.21
1082.03
1082.01
1082.16
1082.5
1082.73
1082.56
1082.56
1082.72
1083.07
1082.9
1082.72
1082.71
1082.87
1083.21
1082.94
1082.78
1082.77
1082.94
1083.28
1082.47
1082.29
1082.28
1082.43
1082.77
1081.89
1081.34
1081.05
1080.98
1081.12
1082.43
1081.84
1081.53
1081.46
1081.64
1082.01
1081.6
1081.38
1081.38
1081.63
1083.02
1082.45
1082.16
1082.12
1082.34
1083.82
1083.24
1082.95
1082.9
1083.12
1082.24
1081.95
1081.83
1081.91
1082.2
1082.41
1082.04
1081.85
1081.88
1082.15
1083.02
1082.67
1082.49
1082.53
1082.8
1082.42
1082.17
1082.08
1082.18
1082.49
1082.67
1082.39
1082.27
1082.35
1082.65
1082.74
1082.5
1082.42
1082.52
1082.83
1081.45
1080.99
1080.74
1080.71
1080.89
1081.63
1081.28
1081.12
1081.16
1081.43
1082.01
1081.75
1081.65
1081.74
1082.05
1081.9
1081.66
1081.59
1081.7
1082.02
1081.73
1081.45
1081.35
1081.43
1081.73
1081.62
1081.37
1081.29
1081.4
1081.71
1081.77
1081.56
1081.51
1081.65
1081.97
1081.97
1081.76
1081.71
1081.85
1082.18
1082.64
1082.44
1082.39
1082.53
1082.86
1082.52
1082.33
1082.3
1082.44
1082.78
1082.26
1082.03
1081.97
1082.08
1082.4
1082.14
1081.93
1081.88
1082.01
1082.33
1080.97
1080.53
1080.33
1080.32
1080.52
1080.99
1080.66
1080.51
1080.57
1080.85
1081.21
1080.82
1080.63
1080.64
1080.87
1081.19
1080.9
1080.79
1080.87
1081.17
1081.4
1081.14
1081.05
1081.14
1081.45
1081.4
1081.08
1080.92
1080.97
1081.25
1081.82
1081.6
1081.55
1081.68
1082
1082.27
1082.08
1082.05
1082.2
1082.53
1081.8
1081.57
1081.51
1081.63
1081.94
1081.61
1081.85
1081.63
1081.89
1081
1081.28
1080.99
1081.24
1081.65
1081.69
1081.91
1081.86
1081.01
1081.02
1081.26
1081.19
1082.25
1082.87
1082.46
1083.06
1082.25
1082.82
1082.5
1083.05
1082.51
1082.29
1082.38
1082.24
1082.73
1082.95
1082.22
1082.48
1082.1
1082.4
1081.6
1081.88
1081.43
1081.71
1082.81
1083.1
1082.64
1082.97
1083.27
1083.61
1083.43
1083.92
1083.59
1084.05
1083.4
1083.97
1083.6
1084.11
1083.3
1084.09
1083.44
1084.13
1083.73
1084.44
1084.13
1084.86
1081.88
1082.03
1082
1082.18
1081.08
1081.12
1081.21
1081.25
1082.76
1083.22
1082.65
1083.07
1082.19
1082.35
1082.45
1082.57
1081.4
1081.41
1081.63
1081.6
1082.95
1083.4
1083.23
1083.64
1083.54
1084.41
1084.29
1085.29
1083.47
1084.42
1084.16
1085.22
1083.73
1084.56
1084.47
1085.44
1084.02
1084.85
1084.71
1085.67
1083.49
1083.79
1084.03
1084.5
1083.45
1083.69
1084.11
1084.57
1083.36
1083.5
1084.27
1084.64
1081.85
1081.02
1082.66
1083.52
1084.61
1080.99
1081.78
1082.59
1083.5
1084.81
1081.06
1081.95
1082.97
1084.09
1085.23
1084.27
1084.48
1085.73
1086.16
1084.05
1084.25
1085.65
1086.07
1083.71
1083.88
1085.54
1085.96
1081.01
1081.11
1081.85
1081.98
1082.73
1082.86
1083.78
1083.95
1085.67
1086.13
1081.06
1081.16
1082.04
1082.31
1083.15
1083.51
1084.44
1084.87
1086.18
1086.73
1082.26
1082.74
1082.38
1082.88
1081.14
1081.17
1081.25
1081.24
1083.64
1084.36
1083.49
1084.17
1082.49
1083.06
1082.7
1083.31
1081.38
1081.4
1081.57
1081.61
1083.75
1084.56
1083.99
1084.85
1085.15
1086.09
1087.06
1088.27
1084.9
1085.82
1086.72
1087.85
1085.33
1086.31
1087.35
1088.59
1085.5
1086.55
1087.5
1088.72
1084.54
1084.7
1085.85
1085.85
1084.32
1084.51
1085.79
1085.77
1084
1084.28
1085.73
1085.73
1081.33
1081.73
1082.22
1082.59
1083.07
1083.39
1084.12
1084.42
1085.83
1085.79
1081.38
1081.8
1082.68
1083.07
1083.83
1084.11
1084.98
1085.09
1086.16
1086.03
1079.99
1079.97
1080.23
1080.13
1080.45
1080.43
1080.7
1080.59
1079.67
1079.43
1079.9
1079.65
1079.67
1079.45
1079.92
1079.69
1079.88
1079.67
1079.85
1079.69
1079.5
1079.7
1080.36
1080.63
1080.82
1081.09
1080.18
1080.49
1080.09
1080.37
1079.99
1080.28
1079.28
1079.17
1079.49
1079.37
1079.29
1079.15
1079.51
1079.36
1079.31
1079.13
1079.48
1079.28
1079.74
1079.51
1079.99
1079.71
1079.89
1079.86
1080
1079.94
1080.4
1080.39
1080.53
1080.49
1079.65
1079.57
1079.54
1079.5
1080.17
1080.06
1080.37
1080.22
1080.71
1080.63
1080.92
1080.8
1079.81
1079.67
1080
1079.8
1079.39
1079.19
1079.34
1079.23
1079.29
1079.13
1079.29
1079.2
1079.54
1079.3
1079.43
1079.3
1079.71
1079.44
1079.55
1079.39
1079.19
1079.23
1079.09
1079.16
1079.21
1079.25
1079.09
1079.16
1079.26
1079.29
1079.11
1079.17
1079.84
1080.35
1079.51
1079.28
1079.14
1080.35
1079.87
1079.54
1079.31
1079.19
1080.34
1079.83
1079.49
1079.29
1079.2
1079.38
1079.66
1079.35
1079.64
1079.39
1079.64
1079.33
1079.62
1079.4
1079.62
1079.31
1079.57
1080.35
1080.45
1079.87
1080
1079.57
1079.73
1079.37
1079.56
1079.29
1079.53
1080.3
1080.33
1079.81
1079.86
1079.49
1079.6
1079.33
1079.49
1079.29
1079.53
1079.78
1079.75
1079.88
1079.78
1080.3
1080.22
1080.41
1080.26
1079.55
1079.56
1079.48
1079.53
1080.03
1079.89
1080.18
1080.05
1080.58
1080.39
1080.75
1080.57
1079.68
1079.66
1079.81
1079.81
1079.38
1079.5
1079.37
1079.6
1079.33
1079.48
1079.32
1079.56
1079.48
1079.58
1079.45
1079.68
1079.61
1079.72
1079.55
1079.79
1079.99
1080.3
1080.08
1080.45
1079.95
1080.29
1080.04
1080.43
1079.92
1080.29
1079.99
1080.44
1080.67
1081.07
1080.24
1080.65
1079.99
1080.41
1079.85
1080.28
1079.95
1080.48
1080.5
1080.97
1080.07
1080.55
1079.86
1080.37
1079.83
1080.36
1079.99
1080.6
1079.31
1079.84
1080.75
1082.25
1079.5
1080.02
1080.94
1082.45
1079.3
1079.82
1080.73
1082.24
1079.48
1080
1080.91
1082.41
1079.29
1079.81
1080.67
1082.13
1079.4
1079.91
1080.78
1082.26
1079.61
1080.09
1080.99
1082.46
1079.76
1080.22
1081.1
1082.55
1079.34
1079.84
1080.68
1082.13
1079.43
1079.94
1080.7
1081.99
1079.31
1079.83
1080.63
1082
1079.42
1079.93
1080.68
1081.92
1079.42
1079.9
1080.76
1082.23
1079.47
1079.97
1080.73
1082.03
1079.52
1079.98
1080.83
1082.26
1079.54
1080.01
1080.77
1082.04
1079.25
1079.77
1080.63
1082.07
1079.34
1079.86
1080.63
1081.9
1079.27
1079.78
1080.63
1082.05
1079.36
1079.88
1080.64
1081.9
1079.29
1079.81
1080.62
1082.01
1079.38
1079.9
1080.66
1081.9
1079.35
1079.87
1080.63
1081.93
1079.41
1079.93
1080.67
1081.87
1079.43
1079.95
1080.67
1081.85
1079.55
1080.06
1080.79
1081.71
1079.81
1080.32
1081.06
1081.92
1079.54
1080.06
1080.78
1081.7
1079.81
1080.33
1081.07
1081.93
1079.55
1080.06
1080.79
1081.71
1079.82
1080.33
1081.08
1081.93
1079.55
1080.07
1080.79
1081.71
1079.82
1080.35
1081.09
1081.94
1079.56
1080.09
1080.8
1081.71
1079.83
1080.36
1081.1
1081.95
1079.64
1080.16
1080.87
1081.77
1079.88
1080.42
1081.15
1082
1079.59
1080.12
1080.83
1081.73
1079.85
1080.38
1081.12
1081.97
1079.71
1080.21
1080.91
1081.81
1079.95
1080.47
1081.19
1082.03
1079.78
1080.27
1080.96
1081.85
1080.03
1080.53
1081.24
1082.07
1084.48
1086.27
1087.78
1089
1089.95
1084.6
1086.36
1087.86
1089.09
1090.03
1084.48
1086.27
1087.78
1089
1089.95
1084.6
1086.36
1087.86
1089.08
1090.03
1084.48
1086.27
1087.78
1089
1089.94
1084.54
1086.3
1087.81
1089.03
1089.97
1084.61
1086.37
1087.87
1089.09
1090.03
1084.63
1086.38
1087.87
1089.09
1090.02
1084.49
1086.27
1087.78
1089
1089.95
1084.59
1086.41
1087.92
1089.14
1090.08
1084.49
1086.3
1087.81
1089.03
1089.97
1084.6
1086.43
1087.94
1089.16
1090.11
1084.51
1086.29
1087.79
1089.02
1089.96
1084.62
1086.44
1087.95
1089.17
1090.11
1084.53
1086.3
1087.8
1089.02
1089.96
1084.65
1086.46
1087.96
1089.18
1090.12
1084.49
1086.3
1087.82
1089.05
1089.99
1084.61
1086.46
1087.97
1089.2
1090.14
1084.5
1086.31
1087.83
1089.05
1090
1084.62
1086.46
1087.98
1089.2
1090.15
1084.51
1086.33
1087.85
1089.07
1090.02
1084.63
1086.48
1087.99
1089.22
1090.16
1084.56
1086.4
1087.91
1089.14
1090.08
1084.67
1086.51
1088.03
1089.25
1090.19
1084.65
1086.49
1088
1089.22
1090.16
1088.85
1089.19
1088.9
1089.24
1089
1089.36
1089.17
1089.52
1089.45
1089.75
1090.15
1090.54
1089.83
1090.18
1090.41
1090.85
1090.65
1091.09
1093.21
1097.65
1101.24
1103.95
1105.75
1093.11
1097.6
1101.23
1103.97
1105.79
1093.25
1097.68
1101.26
1103.97
1105.76
1093.17
1097.64
1101.26
1103.99
1105.81
1093.34
1097.75
1101.31
1104
1105.79
1093.25
1097.7
1101.3
1104.03
1105.84
1093.47
1097.84
1101.37
1104.06
1105.84
1093.38
1097.79
1101.36
1104.07
1105.88
1093.67
1097.97
1101.47
1104.13
1105.9
1093.54
1097.89
1101.44
1104.14
1105.94
1094.13
1098.29
1101.71
1104.32
1106.07
1094.04
1098.24
1101.69
1104.33
1106.1
1093.9
1098.12
1101.58
1104.22
1105.98
1093.77
1098.05
1101.55
1104.22
1106.01
1094.35
1098.46
1101.84
1104.43
1106.16
1094.31
1098.44
1101.84
1104.45
1106.2
1094.57
1098.64
1101.98
1104.54
1106.26
1094.54
1098.63
1101.99
1104.57
1106.31
1080.89
1081.33
1081.03
1080.57
1080
1080.24
1080
1080.26
1080.45
1080.73
1080.45
1080.69
1084.97
1084.9
1084.72
1084.43
1084.04
1083.57
1085
1084.93
1084.76
1084.49
1084.13
1083.72
1085.16
1085.45
1085.08
1085.35
1084.87
1085.12
1084.55
1084.74
1084.11
1084.26
1083.59
1083.76
1083.07
1082.59
1082.19
1081.86
1081.62
1081.44
1083.27
1082.84
1082.46
1082.14
1081.89
1081.71
1084.62
1084.48
1084.5
1084.69
1085.04
1084.54
1084.4
1084.43
1084.61
1084.97
1084.36
1084.22
1084.24
1084.43
1084.78
1084.07
1083.92
1083.94
1084.13
1084.48
1083.67
1083.52
1083.54
1083.72
1084.07
1083.2
1083.04
1083.05
1083.22
1083.57
1084.65
1084.51
1084.53
1084.72
1085.07
1084.58
1084.44
1084.46
1084.65
1085
1084.41
1084.26
1084.28
1084.47
1084.82
1084.13
1083.99
1084
1084.19
1084.54
1083.77
1083.62
1083.63
1083.81
1084.16
1083.35
1083.19
1083.19
1083.37
1083.71
1084.81
1084.67
1084.69
1084.88
1085.23
1085.1
1084.96
1084.98
1085.17
1085.52
1084.73
1084.59
1084.61
1084.8
1085.15
1085
1084.86
1084.89
1085.07
1085.42
1084.52
1084.38
1084.4
1084.59
1084.94
1084.77
1084.63
1084.65
1084.83
1085.18
1084.19
1084.04
1084.06
1084.25
1084.6
1084.39
1084.24
1084.26
1084.44
1084.79
1083.74
1083.59
1083.61
1083.79
1084.14
1083.9
1083.74
1083.76
1083.94
1084.29
1083.23
1083.07
1083.07
1083.25
1083.6
1083.39
1083.23
1083.24
1083.41
1083.75
1082.69
1082.52
1082.51
1082.68
1083.02
1082.2
1082.01
1081.99
1082.15
1082.48
1081.78
1081.57
1081.52
1081.66
1081.99
1081.42
1081.18
1081.11
1081.23
1081.54
1081.14
1080.87
1080.78
1080.87
1081.18
1080.94
1080.65
1080.54
1080.63
1080.93
1082.89
1082.72
1082.72
1082.89
1083.23
1082.45
1082.27
1082.25
1082.41
1082.74
1082.05
1081.85
1081.81
1081.96
1082.29
1081.71
1081.49
1081.44
1081.56
1081.89
1081.44
1081.21
1081.13
1081.25
1081.57
1081.26
1081.01
1080.93
1081.04
1081.35
1084.93
1084.78
1084.52
1084.15
1083.68
1083.13
1084.96
1084.82
1084.57
1084.22
1083.79
1083.31
1085.12
1085.4
1084.96
1085.22
1084.67
1084.91
1084.26
1084.44
1083.74
1083.87
1083.13
1083.26
1082.56
1082.04
1081.63
1081.37
1081.27
1081.32
1082.81
1082.35
1081.98
1081.73
1081.61
1081.62
1084.58
1084.44
1084.46
1084.65
1085
1084.43
1084.29
1084.31
1084.5
1084.85
1084.17
1084.03
1084.05
1084.24
1084.59
1083.8
1083.65
1083.67
1083.86
1084.21
1083.32
1083.18
1083.19
1083.38
1083.73
1082.77
1082.62
1082.63
1082.81
1083.16
1084.61
1084.47
1084.5
1084.68
1085.03
1084.46
1084.32
1084.35
1084.54
1084.89
1084.21
1084.07
1084.09
1084.28
1084.63
1083.86
1083.72
1083.74
1083.93
1084.28
1083.43
1083.28
1083.3
1083.48
1083.83
1082.94
1082.79
1082.8
1082.98
1083.33
1084.77
1084.63
1084.65
1084.84
1085.19
1085.05
1084.92
1084.94
1085.13
1085.48
1084.61
1084.47
1084.49
1084.68
1085.03
1084.87
1084.74
1084.76
1084.95
1085.3
1084.32
1084.18
1084.2
1084.39
1084.74
1084.55
1084.41
1084.44
1084.62
1084.98
1083.9
1083.76
1083.78
1083.97
1084.32
1084.08
1083.94
1083.96
1084.15
1084.5
1083.38
1083.23
1083.25
1083.43
1083.78
1083.51
1083.36
1083.38
1083.56
1083.91
1082.77
1082.61
1082.63
1082.81
1083.16
1082.9
1082.74
1082.75
1082.93
1083.29
1082.18
1082.02
1082.02
1082.2
1082.55
1081.65
1081.47
1081.46
1081.63
1081.97
1081.22
1081.03
1081
1081.15
1081.49
1080.93
1080.71
1080.65
1080.78
1081.11
1080.8
1080.55
1080.46
1080.57
1080.88
1080.82
1080.54
1080.43
1080.52
1080.83
1082.43
1082.27
1082.27
1082.45
1082.79
1081.97
1081.79
1081.78
1081.95
1082.29
1081.58
1081.39
1081.37
1081.52
1081.86
1081.31
1081.1
1081.06
1081.2
1081.53
1081.18
1080.94
1080.88
1081
1081.33
1081.16
1080.92
1080.84
1080.95
1081.27
1081.33
1081.23
1081.97
1082.56
1082.6
1082.73
1082.19
1080.98
1081.15
1081.01
1081.54
1081.41
1081.35
1081.69
1081.77
1081.99
1080.93
1080.93
1081.32
1081.36
1081.12
1081.18
1081.49
1081.57
1082.1
1082.1
1081.66
1081.65
1081.12
1081.08
1080.9
1081.02
1081.07
1080.92
1081.45
1081.91
1081.35
1080.53
1080.12
1079.95
1079.97
1080.19
1080.64
1080.3
1080.15
1080.2
1080.49
1081.58
1081.41
1081.4
1081.57
1081.92
1082.18
1082.02
1082.03
1082.2
1082.55
1082.22
1082.06
1082.06
1082.23
1082.58
1082.36
1082.2
1082.21
1082.38
1082.73
1081.81
1081.64
1081.64
1081.81
1082.16
1080.28
1079.91
1079.75
1079.79
1080.01
1080.47
1080.12
1079.98
1080.03
1080.27
1080.5
1080.21
1080.09
1080.18
1080.48
1080.93
1080.61
1080.5
1080.58
1080.86
1080.98
1080.76
1080.7
1080.84
1081.16
1080.88
1080.62
1080.54
1080.65
1080.97
1081.28
1081.08
1081.04
1081.19
1081.52
1081.35
1081.14
1081.1
1081.24
1081.57
1081.59
1081.39
1081.36
1081.51
1081.85
1080.24
1079.88
1079.73
1079.77
1080
1080.44
1080.17
1080.08
1080.18
1080.48
1080.9
1080.69
1080.65
1080.78
1081.12
1080.95
1080.74
1080.71
1080.85
1081.19
1080.68
1080.45
1080.39
1080.52
1080.85
1080.75
1080.54
1080.49
1080.63
1080.96
1081.09
1080.89
1080.87
1081.02
1081.36
1081.17
1080.98
1080.96
1081.12
1081.46
1081.71
1081.54
1081.52
1081.68
1082.02
1081.71
1081.54
1081.53
1081.7
1082.05
1081.26
1081.07
1081.04
1081.19
1081.53
1081.26
1081.07
1081.05
1081.21
1081.55
1080.37
1079.99
1079.83
1079.86
1080.09
1080.54
1080.23
1080.11
1080.19
1080.48
1080.31
1079.99
1079.85
1079.91
1080.17
1080.55
1080.3
1080.21
1080.31
1080.63
1080.63
1080.4
1080.34
1080.46
1080.79
1080.43
1080.15
1080.05
1080.15
1080.45
1081.04
1080.85
1080.82
1080.97
1081.31
1081.53
1081.35
1081.34
1081.51
1081.85
1080.94
1080.74
1080.7
1080.85
1081.18
1081.53
1081.2
1081.08
1081.14
1081.36
1081.8
1081.54
1081.57
1080.92
1080.91
1081.59
1081.64
1080.93
1080.96
1082.2
1082.89
1082.21
1082.83
1082.27
1082.23
1082.72
1081.52
1081.55
1080.89
1080.88
1081.58
1081.63
1080.92
1080.95
1082.24
1082.98
1082.24
1082.89
1082.3
1082.25
1082.77
1081.53
1081.57
1080.89
1080.87
1081.6
1081.65
1080.92
1080.95
1082.28
1083.17
1082.28
1083.06
1082.34
1082.28
1082.91
1081.66
1081.69
1081
1080.98
1081.72
1081.78
1081.02
1081.06
1082.45
1083.39
1082.44
1083.27
1082.49
1082.42
1083.09
1081.87
1081.9
1081.21
1081.19
1081.93
1082
1081.24
1081.28
1082.67
1083.54
1082.66
1083.45
1082.69
1082.64
1083.27
1082.25
1082.28
1081.6
1081.59
1082.3
1082.36
1081.63
1081.66
1083.01
1083.81
1082.99
1083.72
1083.01
1082.96
1083.54
1079.91
1079.91
1080.36
1080.36
1079.91
1079.92
1080.37
1080.38
1079.58
1079.33
1079.59
1079.36
1079.6
1079.64
1079.44
1079.88
1079.88
1080.33
1080.33
1079.9
1079.91
1080.35
1080.36
1079.54
1079.33
1079.56
1079.37
1079.58
1079.64
1079.45
1079.87
1079.88
1080.32
1080.31
1079.9
1079.93
1080.35
1080.37
1079.56
1079.41
1079.59
1079.46
1079.62
1079.68
1079.53
1079.98
1079.99
1080.43
1080.42
1080.02
1080.05
1080.45
1080.48
1079.7
1079.61
1079.73
1079.65
1079.78
1079.84
1079.72
1080.2
1080.22
1080.65
1080.64
1080.25
1080.3
1080.67
1080.7
1079.95
1079.9
1079.98
1079.93
1080.04
1080.11
1079.99
1080.61
1080.63
1081.05
1081.04
1080.67
1080.71
1081.08
1081.1
1080.36
1080.28
1080.4
1080.31
1080.44
1080.5
1080.37
1085.09
1084.98
1084.77
1084.59
1084.29
1084.12
1083.63
1083.49
1083.75
1083.58
1084.27
1084.1
1084.64
1084.48
1084.94
1084.83
1084.16
1083.94
1083.86
1083.55
1083.35
1083.07
1083.08
1082.71
1085.5
1086.19
1085.39
1086.02
1085.21
1085.86
1085.01
1085.63
1084.55
1084.9
1084.23
1084.67
1085.47
1085.09
1083.48
1082.92
1083.18
1082.77
1082.75
1082.28
1082.39
1082.04
1084.17
1083.59
1083.84
1083.4
1084.72
1084.15
1086.97
1087.43
1086.65
1087.13
1086.65
1087.23
1086.26
1086.79
1086.18
1086.97
1085.6
1086.32
1085.15
1085.86
1084.65
1085.37
1084.01
1083.91
1083.52
1083.48
1082.94
1082.81
1082.56
1082.43
1084.45
1084.6
1085.02
1085.06
1083.11
1083.12
1082.75
1082.83
1082.22
1082.11
1081.89
1081.84
1083.98
1084.22
1083.57
1083.91
1085.35
1086.23
1085.7
1086.7
1085.98
1086.88
1086.19
1087.22
1084.84
1085.69
1085.31
1086.28
1084.39
1085.22
1085
1085.95
1088.08
1089.1
1088.25
1089.26
1087.77
1088.72
1088.08
1089.05
1087.26
1087.99
1087.81
1088.6
1084.7
1083.43
1085.84
1086.71
1087.64
1083.6
1084.93
1086.3
1087.22
1088.23
1083.29
1084.48
1085.64
1086.73
1087.79
1090.05
1090.49
1090.57
1090.97
1089.56
1090.07
1090.25
1090.68
1088.73
1089.31
1089.7
1090.21
1083.87
1084.33
1085.34
1085.96
1086.68
1087.34
1087.76
1088.41
1089.19
1089.85
1083.49
1083.86
1084.83
1085.49
1086.08
1086.84
1087.33
1088.15
1088.9
1089.78
1084.23
1084.98
1083.7
1084.36
1082.93
1083.12
1082.45
1082.55
1085.03
1085.91
1085.55
1086.49
1083.24
1083.91
1082.95
1083.59
1082.07
1082.16
1081.79
1081.86
1084.55
1085.45
1084.25
1085.14
1086.54
1087.62
1088.41
1089.73
1086.96
1088.09
1088.68
1089.98
1086.15
1087.2
1088.14
1089.45
1085.78
1086.84
1087.75
1088.99
1090.6
1090.77
1091.12
1090.7
1090.75
1091.06
1090.28
1090.5
1090.88
1090.46
1090.53
1090.87
1089.65
1089.95
1090.38
1090.12
1090.23
1090.62
1084.89
1085.53
1086.22
1086.63
1087.18
1087.79
1087.95
1088.42
1088.95
1088.91
1089.3
1089.8
1089.84
1090.02
1090.47
1084.37
1085.09
1085.87
1086.36
1087.11
1087.88
1087.72
1088.38
1089.06
1088.82
1089.3
1089.9
1089.83
1090.07
1090.59
1081.92
1081.69
1081.72
1081.42
1082.57
1082.28
1082.33
1081.98
1081.76
1081.26
1081.71
1081.24
1081.63
1081.18
1081.53
1081.1
1081.2
1081.4
1081.09
1081.31
1081.1
1080.94
1081.19
1080.92
1081.7
1081.39
1081.07
1080.82
1080.9
1080.66
1080.85
1080.6
1080.76
1080.31
1080.84
1080.42
1080.7
1080.23
1080.72
1080.29
1080.65
1080.14
1080.54
1080.08
1080.47
1080.05
1080.26
1079.91
1081.37
1081.16
1081.11
1080.88
1082.05
1081.87
1081.74
1081.54
1080.66
1080.39
1080.89
1080.64
1080.85
1080.63
1080.6
1080.41
1081.45
1081.26
1081.16
1081.02
1080.44
1080.17
1080.21
1079.97
1080.29
1079.88
1080.06
1079.81
1080.47
1080.04
1080.28
1079.99
1080.11
1079.74
1079.87
1079.65
1079.91
1079.59
1079.7
1079.51
1080.76
1080.95
1080.35
1080.56
1080.75
1080.97
1080.32
1080.54
1080.76
1080.95
1080.28
1080.47
1081.55
1082.36
1081.05
1080.65
1080.22
1082.51
1081.71
1081.24
1080.85
1080.4
1082.21
1081.43
1080.87
1080.49
1080.17
1081.31
1081.8
1080.92
1081.4
1081.29
1081.76
1080.86
1081.33
1081.22
1081.67
1080.76
1081.19
1082.71
1083.08
1081.86
1082.24
1081.38
1081.77
1081.01
1081.41
1080.59
1081
1082.33
1082.54
1081.53
1081.75
1080.99
1081.25
1080.64
1080.96
1080.36
1080.77
1081.11
1081.17
1080.81
1080.79
1081.84
1081.87
1081.48
1081.4
1080.38
1080.46
1080.63
1080.79
1080.58
1080.49
1080.37
1080.25
1081.2
1081.06
1080.95
1080.79
1080.18
1080.2
1079.98
1079.99
1080.11
1080.31
1079.97
1080.3
1080.34
1080.6
1080.15
1080.52
1079.92
1080.06
1079.81
1080.1
1079.76
1079.88
1079.67
1079.92
1082.48
1083.15
1083.78
1082.23
1082.99
1083.62
1082.39
1083.06
1083.71
1082.12
1082.89
1083.54
1082.26
1082.92
1083.58
1081.95
1082.75
1083.45
1083.59
1084.23
1084.92
1082.77
1083.43
1084.14
1082.3
1083
1083.72
1081.98
1082.67
1083.37
1081.76
1082.6
1083.37
1082.94
1083.64
1084.42
1082.17
1082.88
1083.66
1081.74
1082.49
1083.3
1081.54
1082.33
1083.15
1081.57
1082.45
1083.29
1080.1
1080.37
1081.11
1082.5
1080.23
1080.52
1081.28
1082.68
1080.05
1080.32
1081.07
1082.47
1080.13
1080.43
1081.21
1082.61
1079.98
1080.27
1080.98
1082.34
1079.95
1080.28
1081.04
1082.43
1079.97
1080.34
1081.16
1082.58
1079.89
1080.31
1081.16
1082.59
1079.81
1080.16
1080.91
1082.28
1079.84
1080.21
1080.89
1082.13
1079.93
1080.24
1080.91
1082.19
1079.97
1080.31
1080.94
1082.1
1079.72
1080.11
1080.91
1082.34
1079.72
1080.14
1080.86
1082.12
1079.62
1080.05
1080.88
1082.3
1079.62
1080.07
1080.81
1082.07
1080.12
1080.36
1081.03
1082.34
1080.3
1080.49
1081.06
1082.2
1080.11
1080.35
1081.01
1082.31
1080.29
1080.49
1081.06
1082.19
1080.09
1080.34
1080.99
1082.25
1080.25
1080.48
1081.05
1082.17
1080.08
1080.36
1080.97
1082.15
1080.22
1080.47
1081.03
1082.12
1080.1
1080.4
1080.98
1082.07
1080.57
1080.72
1081.24
1082.05
1080.87
1081.01
1081.53
1082.29
1080.53
1080.71
1081.22
1082.03
1080.84
1080.99
1081.52
1082.28
1080.47
1080.68
1081.21
1082.02
1080.78
1080.96
1081.51
1082.27
1080.39
1080.63
1081.17
1081.99
1080.69
1080.92
1081.48
1082.25
1080.27
1080.56
1081.13
1081.95
1080.6
1080.87
1081.45
1082.23
1080.05
1080.44
1081.07
1081.93
1080.35
1080.73
1081.36
1082.17
1080.16
1080.5
1081.1
1081.94
1080.47
1080.8
1081.41
1082.2
1079.96
1080.38
1081.04
1081.91
1080.23
1080.66
1081.32
1082.14
1079.87
1080.32
1081
1081.88
1080.13
1080.59
1081.28
1082.11
1084.63
1086.36
1087.83
1089.04
1089.98
1084.74
1086.45
1087.92
1089.13
1090.06
1084.62
1086.35
1087.83
1089.04
1089.97
1084.72
1086.43
1087.91
1089.11
1090.05
1084.59
1086.34
1087.82
1089.03
1089.97
1084.64
1086.36
1087.84
1089.05
1089.99
1084.68
1086.41
1087.89
1089.1
1090.04
1084.66
1086.39
1087.88
1089.09
1090.03
1084.58
1086.33
1087.82
1089.03
1089.96
1084.67
1086.46
1087.95
1089.16
1090.1
1084.6
1086.36
1087.85
1089.06
1089.99
1084.69
1086.49
1087.98
1089.19
1090.12
1084.58
1086.33
1087.82
1089.03
1089.97
1084.68
1086.47
1087.97
1089.18
1090.12
1084.55
1086.31
1087.81
1089.02
1089.96
1084.67
1086.47
1087.97
1089.19
1090.12
1084.64
1086.39
1087.88
1089.08
1090.02
1084.77
1086.55
1088.03
1089.24
1090.17
1084.64
1086.4
1087.88
1089.09
1090.03
1084.77
1086.55
1088.03
1089.24
1090.18
1084.64
1086.41
1087.9
1089.11
1090.04
1084.77
1086.56
1088.04
1089.25
1090.19
1084.68
1086.47
1087.96
1089.17
1090.1
1084.79
1086.58
1088.07
1089.28
1090.22
1084.76
1086.55
1088.04
1089.25
1090.19
1092.78
1093.08
1092.65
1092.95
1092.41
1092.75
1092.11
1092.51
1091.82
1092.27
1091.37
1091.89
1091.6
1092.11
1091.14
1091.64
1090.89
1091.35
1096.09
1099.72
1102.8
1105.2
1106.84
1096.03
1099.69
1102.8
1105.22
1106.89
1096.02
1099.69
1102.78
1105.18
1106.83
1095.98
1099.67
1102.78
1105.21
1106.88
1095.91
1099.63
1102.73
1105.15
1106.8
1095.86
1099.61
1102.74
1105.18
1106.86
1095.75
1099.53
1102.67
1105.1
1106.76
1095.72
1099.52
1102.68
1105.14
1106.82
1095.57
1099.41
1102.59
1105.04
1106.71
1095.57
1099.42
1102.61
1105.08
1106.77
1095.18
1099.12
1102.36
1104.86
1106.55
1095.22
1099.16
1102.41
1104.92