/*--------------------------------*- C++ -*----------------------------------*\
  =========                 |
  \\      /  F ield         | OpenFOAM: The Open Source CFD Toolbox
   \\    /   O peration     | Website:  https://openfoam.org
    \\  /    A nd           | Version:  13
     \\/     M anipulation  |
\*---------------------------------------------------------------------------*/
FoamFile
{
    format      ascii;
    class       volScalarField;
    location    "399.831886";
    object      T;
}
// * * * * * * * * * * * * * * * * * * * * * * * * * * * * * * * * * * * * * //

dimensions      [0 0 0 1 0 0 0];

internalField   nonuniform List<scalar> 
5712
(
496.252
497.915
500.487
503.062
506.001
508.794
512.604
515.091
509.951
512.779
504.72
507.437
500.504
502.914
497.073
498.871
508.926
512.715
513.661
518.958
517.255
522.02
521.96
528.228
492.383
485.668
494.058
487.636
496.564
490.011
499.252
492.86
506.397
501.346
511.209
504.715
495.363
500.356
519.39
528.268
524.89
531.742
527.464
535.5
533.918
540.21
511.913
520.739
517.143
524.078
505.561
513.973
477.942
472.819
481.093
475.603
482.21
475.733
486.182
479.99
488.477
479.811
495.375
486.822
501.276
492.556
508.644
499.457
512.864
514.717
520.387
521.679
524.1
526.083
530.845
532.811
510.194
509.927
502.141
503.025
527.04
527.607
533.276
532.654
537.035
538.576
542.93
543.548
517.177
515.823
523.711
520.782
500.107
489.973
498.295
487.619
492.114
482.326
491.595
480.964
507.146
496.813
504.016
493.182
513.809
503.217
508.774
497.819
466.528
456.464
464.795
455.177
470.253
460.47
467.058
457.663
476.367
468.348
470.891
462.91
503.107
515.516
491.721
483.351
474.066
512.443
499.381
485.658
476.968
467.629
517.873
506.141
494.963
484.492
474.142
447.329
441.609
443.894
438.984
451.837
445.288
447.027
441.716
460.044
452.49
452.664
446.353
507.487
499.448
493.53
483.947
480.555
471.268
470.747
462.031
458.743
450.865
513.897
506.975
500.918
491.202
489.083
478.818
477.64
467.293
463.781
453.847
510.056
499.559
518.082
508.477
523.223
517.565
530.989
526.331
504.734
493.657
497.2
485.536
524.984
515.335
529.893
520.562
537.407
532.81
542.308
538.104
511.565
500.258
516.292
505.172
490.017
478.147
472.761
459.927
483.893
471.387
468.352
455.646
495.55
484.003
476.786
464.157
500.734
488.924
481.738
469.591
437.547
433.228
428.272
437.364
433.794
429.043
440.377
435.498
430.202
439.606
435.696
430.548
446.165
440.338
434.38
443.094
438.337
432.526
489.78
479.539
469.548
473.407
464.375
455.733
461.706
453.621
446.009
453.792
446.532
439.373
446.16
440.282
433.461
497.402
485.399
473.721
478.028
466.238
455.42
465.663
454.938
445.283
456.047
446.872
438.21
446.959
439.809
431.946
531.873
536.026
535.939
541.511
525.312
530.198
529.723
536.047
529.645
535.177
530.828
535.868
532.713
537.541
534.745
539.146
541.303
537.282
544.352
539.414
540.174
543.601
546.299
551.896
541.443
547.295
544.421
550.251
548.484
553.728
546.042
551.68
540.935
545.939
540.069
544.233
542.861
547.717
543.078
547.069
545.227
550.193
548.185
552.085
550.564
553.34
555.395
556.875
540.374
543.576
546.149
549.54
533.428
536.053
539.629
542.383
550.333
554.425
544.985
548.973
551.614
554.696
556.983
559.217
545.437
547.857
551.045
552.644
555.383
559.168
560.505
563.342
553.533
556.311
557.041
557.646
549.014
552.624
552.176
553.547
557.87
559.694
561.312
561.217
562.517
563.299
565.065
564.338
538.527
533.738
544.421
539.864
539.449
534.427
545.318
540.61
540.943
536.445
546.81
542.611
534.968
526.475
540.059
544.386
548.507
523.455
531.655
535.768
539.99
544.818
528.988
537.435
543.522
547.361
549.55
526.885
518.225
533.033
524.593
528.072
519.627
534.438
526.288
530.638
522.394
537.143
529.425
519.193
511.836
527.926
520.207
532.482
524.653
536.306
528.399
541.076
533.61
525.843
520.503
534.46
528.939
540.361
534.256
543.859
536.884
545.857
538.103
542.689
538.754
548.725
545.836
534.817
531.1
541.52
539.057
552.953
548.77
547.536
542.458
553.575
551.478
557.995
556.247
546.925
545.177
551.65
550.331
557.487
554.006
561.577
558.384
554.776
549.157
554.048
547.144
549.892
543.403
550.226
542.708
558.896
554.063
557.409
551.165
562.508
557.883
560.609
554.996
507.044
496.374
486.764
510.847
498.675
488.919
508.956
498.026
488.109
512.983
500.604
490.327
512.099
501.135
490.879
516.495
503.322
492.22
502.513
491.888
481.289
510.547
499.393
488.324
514.853
503.148
491.768
518.064
506.213
494.943
520.339
506.235
493.985
512.062
499.848
487.386
520.097
507.411
494.521
524.491
511.068
497.666
525.874
511.885
498.357
524.002
508.923
495.313
545.924
538.162
523.838
501.809
543.692
535.595
521.033
499.089
547.121
539.04
524.573
502.278
545.843
537.22
522.375
500.187
548.727
540.166
526.087
504.239
549.7
540.35
525.443
503.118
549.647
539.488
523.65
500.978
551.686
540.498
523.952
501.074
552.626
542.606
527.691
505.304
552.248
541.63
527.66
507.266
549.902
540.754
527.227
506.448
549.305
539.597
526.647
507.486
554.94
544.057
527.975
504.713
554.854
543.429
528.589
507.579
557.328
545.575
528.849
505.548
557.179
545.026
529.664
508.573
545.225
538.098
524.869
503.96
541.596
535.3
523.826
505.417
545.631
538.273
525.158
504.355
541.849
535.303
523.858
505.613
546.248
538.46
525.643
505.349
542.781
535.671
524.135
506.051
546.589
538.257
525.899
506.63
543.685
535.971
524.481
506.79
546.437
537.575
525.624
507.747
536.321
530.772
520.321
506.613
530.601
525.563
515.064
502.15
537.071
531.174
520.614
506.899
531.366
525.938
515.282
502.298
538.453
531.892
521.038
507.2
532.713
526.588
515.625
502.577
540.44
532.972
521.81
507.826
534.535
527.524
516.173
502.961
542.98
534.395
522.755
508.496
536.653
528.607
516.775
503.348
547.84
537.213
524.17
509.202
541.996
531.735
518.707
504.62
545.451
535.792
523.428
508.804
539.333
530.149
517.722
503.988
550.015
538.549
524.873
509.598
544.488
533.255
519.632
505.322
552.122
539.922
525.787
510.313
546.807
534.739
520.599
506.058
472.604
450.838
433.664
420.719
411.573
471.17
449.802
432.79
419.938
410.855
472.827
450.948
433.729
420.763
411.608
471.497
449.996
432.92
420.036
410.936
473.22
451.12
433.828
420.832
411.663
472.628
450.835
433.603
420.626
411.469
472.152
450.375
433.158
420.202
411.067
472.636
450.687
433.362
420.344
411.182
473.529
451.286
433.926
420.896
411.711
472.398
449.83
432.565
419.654
410.564
473.212
450.89
433.578
420.593
411.44
471.971
449.453
432.255
419.39
410.329
473.646
451.346
433.939
420.883
411.688
472.356
449.724
432.434
419.514
410.426
474.142
451.644
434.131
421.017
411.797
472.56
449.777
432.422
419.472
410.374
472.432
450.361
433.197
420.295
411.184
470.714
448.571
431.594
418.855
409.859
472.509
450.355
433.167
420.257
411.145
470.786
448.587
431.591
418.843
409.845
472.541
450.242
433.027
420.116
411.008
470.823
448.539
431.52
418.767
409.769
472.094
449.633
432.445
419.576
410.503
470.596
448.267
431.251
418.51
409.524
471.103
448.692
431.601
418.812
409.802
428.286
425.845
429.747
427.256
432.524
429.689
436.229
432.746
440.3
436.009
447.407
442.662
443.961
439.203
450.591
446.125
453.71
449.7
407.652
387.25
371.571
360.228
352.828
407.772
387.294
371.474
360.091
352.598
408.324
387.576
371.747
360.333
352.904
408.42
387.581
371.651
360.154
352.659
409.685
388.262
372.127
360.565
353.072
409.732
388.24
372.014
360.375
352.817
411.57
389.25
372.684
360.908
353.318
411.461
389.143
372.521
360.685
353.038
413.84
390.504
373.411
361.359
353.644
413.39
390.207
373.139
361.072
353.319
418.724
393.498
375.266
362.572
354.555
418.042
393.01
374.856
362.193
354.172
416.304
391.975
374.303
361.931
354.067
415.608
391.5
373.91
361.565
353.689
421.038
395.005
376.244
363.234
355.062
420.583
394.654
375.923
362.916
354.728
423.299
396.51
377.237
363.911
355.581
423.161
396.327
377.043
363.683
355.299
546.342
541.774
534.55
539.703
524.998
526.338
527.331
529.221
526.631
529.057
520.31
522.912
515.636
518.518
520.164
522.705
521.424
523.315
520.986
522.44
536.764
534.622
501.209
490.987
489.751
487.835
496.683
516.719
506.776
513.54
497.083
485.093
506.611
505.936
495.806
502.415
499.459
497.001
523.757
518.824
509.589
510.231
514.825
515.557
510.78
507.422
496.492
497.222
503.911
504.899
532.418
530.34
527.494
525.125
520.09
522.517
510.379
501.135
511.478
547.707
552.534
553.746
551.693
546.503
543.42
547.854
548.958
546.54
540.333
507.22
509.867
509.837
507.035
501.455
496.534
498.896
498.739
496.005
490.714
495.309
497.717
497.627
494.963
489.733
493.276
495.592
495.439
492.756
487.566
502.508
505.051
504.989
502.233
496.788
527.84
533.914
536.526
535.794
531.987
518.177
524.592
527.382
526.792
522.754
522.069
526.985
528.913
527.394
522.092
507.392
513.423
515.873
515.033
510.576
494.582
500.47
502.833
502.076
497.894
513.681
517.378
518.28
516.078
510.615
513.753
518.174
519.735
518.024
512.789
503.064
507.146
508.535
506.848
501.873
509.017
512.314
512.903
510.54
505.116
506.222
509.752
510.599
508.467
503.216
503.332
506.457
506.964
504.628
499.354
534.441
539.678
541.681
540.425
536.015
526.826
531.169
532.52
530.501
524.842
516.519
520.008
520.676
518.26
512.632
516.977
520.247
520.696
518.108
512.39
522.064
525.753
526.539
524.136
518.387
522.559
525.978
526.492
523.869
518
517.327
520.349
520.542
517.75
511.928
513.833
516.791
516.977
514.236
508.525
502.498
505.265
505.434
502.857
497.495
503.148
505.8
505.84
503.155
497.728
510.364
513.462
513.84
511.299
505.763
511.257
514.219
514.449
511.781
506.166
543.009
548.008
549.494
547.706
542.87
538.691
542.962
544.014
541.606
535.491
536.768
541.363
542.903
541.073
535.868
532.792
536.647
537.432
534.875
528.801
527.36
530.95
531.562
528.945
522.967
530.507
534.745
535.975
533.822
528.014
516.953
520.017
520.261
517.514
511.722
507.206
509.927
509.975
507.23
501.677
518.203
521.418
521.794
519.132
513.351
553.204
548.232
552.882
547.39
560.463
554.655
560.711
555.533
552.492
551.927
547.354
548.54
560.206
559.67
554.999
556.435
545.152
537.014
540.627
532.883
545.106
537.836
539.91
532.839
539.981
544.558
542.105
545.235
538.984
534.364
541.185
535.958
543.813
538.274
548.414
542.931
551.71
546.399
534.225
528.831
537.234
531.251
528.563
522.521
529.224
521.97
525.479
518.58
530.032
521.627
525.407
517.932
531.814
520.935
528.358
518.482
523.068
513.207
516.502
506.822
549.14
546.601
546.782
544.089
558.347
557.034
555.928
554.688
537.795
532.218
540.084
534.735
543.116
540.969
538.54
537.126
552.318
551.652
547.917
547.938
534.084
529.121
529.296
525.221
528.075
516.47
519.868
507.974
530.007
517.716
522.104
509.638
524.459
513.375
516.927
505.419
519.566
508.801
513.091
501.917
530.112
527.727
522.308
518.456
530.934
528.912
521.606
517.826
532.17
531.124
520.227
517.064
549.763
559.2
540.455
530.161
516.657
559.52
550.629
541.401
530.686
515.167
558.25
548.036
536.26
523.468
510.208
522.787
519.306
506.663
501.01
525.143
521.653
507.419
501.757
528.638
525.55
508.273
502.561
558.871
556.063
549.465
546.533
539.508
536.736
527.451
524.378
506.607
500.664
557.596
554.26
546.466
541.501
533.872
528.319
519.593
513.625
501.169
494.457
542.996
535.343
540.415
532.616
555.568
552.352
553.032
549.903
526.669
517.16
529.367
520.195
537.942
529.277
534.163
525.045
550.179
546.556
546.527
542.557
524.34
513.887
520.491
509.551
510.624
499.819
491.301
479.129
514.03
503.313
495.331
483.665
507.736
496.67
487.697
475.323
504.883
493.132
485.239
473.11
516.357
512.448
501.22
498.974
518.765
514.45
501.653
499.424
522.096
516.397
501.931
499.111
550.772
542.169
541.194
533.271
532.068
525.154
520.247
513.702
500.42
497.182
548.38
538.986
534.222
525.77
521.728
514.759
509.128
504.053
495.758
492.854
571.551
571.531
566.256
568.181
566.72
566.555
561.358
563.247
574.567
575.9
569.353
570.804
574.457
575.826
568.78
570.324
569.606
574.392
570.705
574.142
575.449
570.722
563.392
557.818
558.612
553.279
563.301
557.168
565.681
559.892
564.496
558.596
575.81
573.807
570.828
569.092
576.141
574.224
570.73
569.317
576.577
574.806
572.562
571.317
566.901
566.15
561.336
561.507
571.809
571.14
569.438
569.232
566.081
565.467
563.683
563.306
572.8
572.571
575.111
574.249
565.907
566.546
561.681
563.202
560.133
560.408
555.847
556.866
569.301
570.124
565.129
567.023
574.332
572.884
573.426
571.254
576.517
574.479
574.887
572.346
570.917
570.169
571.236
569.494
566.888
566.863
568.407
567.13
578.122
577.549
575.803
574.767
578.14
577.454
575.789
574.612
577.839
577.282
575.53
574.462
572.553
566.908
575.823
577.074
574.606
566.875
572.35
575.562
576.766
573.976
566.563
572.008
574.945
575.456
572.654
574.433
568.885
571.246
565.627
574.791
569.55
571.526
566.12
575.217
570.51
571.894
566.889
566.381
563.572
571.826
568.639
574.53
570.879
575.169
571.027
571.8
567.203
566.31
563.898
571.607
568.924
574.133
570.72
574.105
569.791
570.774
566.041
570.758
568.607
568.334
566.64
565.285
563.675
562.588
561.464
571.01
568.056
573.108
569.767
565.182
563.812
561.85
560.277
559.248
558.398
555.729
554.637
568.248
565.471
565.149
562.139
570.955
566.601
567.614
562.361
572.784
568.008
569.307
563.935
568.648
564.425
565.555
560.182
565.872
561.397
563.3
557.892
562.142
555.731
557.558
550.359
563.249
556.334
558.089
550.467
564.337
556.495
558.836
549.932
558.2
549.324
562.878
553.833
565.021
556.06
564.733
555.516
559.073
548.514
558.569
548.448
563.132
552.634
564.19
553.448
562.384
551.457
557.178
545.336
565.393
551.078
532.307
507.18
561.259
547.311
528.766
504.034
565.581
551.307
532.557
507.243
561.574
547.734
529.305
504.579
565.658
551.445
533.472
508.802
563.047
549.293
531.407
506.911
558.507
545.448
527.63
503.535
554.886
542.657
525.397
502.017
564.177
550.383
532.947
508.757
561.928
548.179
532.209
510.46
565.01
550.86
533.986
510.774
562.587
548.517
532.68
511.515
562.292
549.026
531.374
507.013
560.791
547.464
531.449
509.685
559.866
547.295
530.029
506.35
559.191
546.397
530.643
509.306
566.845
552.319
534.186
509.905
565.141
550.59
533.87
511.992
566.535
552.044
534.15
510.024
564.689
550.169
533.602
511.947
565.8
551.38
534.088
510.611
564.059
549.598
533.253
511.92
564.414
550.079
533.688
511.519
563.209
548.818
532.896
512.146
562.543
548.295
532.77
512.405
560.969
546.552
530.658
514.025
555.483
541.308
525.438
509.855
560.911
546.502
530.671
514.096
555.397
541.224
525.378
509.801
560.677
546.293
530.478
513.913
555.138
540.98
525.16
509.68
560.338
545.991
530.382
513.878
554.811
540.665
524.937
509.51
559.773
545.508
530.205
513.845
554.272
540.149
524.55
509.206
557.442
543.679
528.676
512.653
552.481
538.753
523.529
508.303
558.756
544.685
529.492
513.281
553.595
539.599
524.161
508.88
555.845
542.495
527.665
511.807
550.85
537.542
522.593
507.601
554.069
541.243
526.727
511.064
548.903
536.158
521.58
506.815
475.575
452.539
434.653
421.331
412.014
473.982
451.428
433.738
420.525
411.278
475.54
452.501
434.631
421.321
412.01
473.958
451.416
433.748
420.549
411.306
475.617
452.485
434.621
421.322
412.016
474.683
452.017
434.292
421.052
411.776
473.579
451.198
433.638
420.499
411.282
473.177
450.999
433.544
420.457
411.263
475.389
452.345
434.541
421.277
411.985
474.028
450.747
433.096
419.982
410.801
475.401
452.127
434.295
421.037
411.759
473.916
450.543
432.885
419.78
410.609
474.929
452.08
434.367
421.148
411.878
473.466
450.351
432.798
419.739
410.589
474.589
451.9
434.279
421.109
411.863
472.948
449.997
432.549
419.551
410.431
475.54
452.117
434.214
420.924
411.637
473.888
450.342
432.618
419.487
410.314
475.431
452.003
434.121
420.847
411.57
473.818
450.276
432.566
419.446
410.279
475.167
451.717
433.88
420.643
411.388
473.585
450.075
432.407
419.315
410.164
474.426
450.936
433.198
420.042
410.838
473.029
449.62
432.033
418.994
409.872
473.239
449.884
432.29
419.238
410.109
475.977
472.711
475.48
472.152
474.359
470.955
472.575
469.274
469.721
466.94
462.449
459.018
465.774
462.745
459.465
455.7
456.63
452.81
438.464
406.142
383.452
368.111
358.736
439.112
406.425
383.447
368.02
358.509
438.069
405.898
383.3
368.012
358.665
438.608
406.092
383.283
367.857
358.412
437.265
405.411
383
367.815
358.52
437.825
405.627
383
367.673
358.278
436.009
404.656
382.533
367.506
358.289
436.673
404.944
382.58
367.397
358.071
434.208
403.591
381.867
367.059
357.95
435.178
404.071
382.037
367.034
357.796
429.846
400.929
380.173
365.92
357.1
430.487
401.28
380.288
365.88
356.958
432.07
402.334
381.076
366.528
357.55
433.038
402.849
381.278
366.531
357.428
427.682
399.493
379.227
365.278
356.619
427.983
399.644
379.231
365.174
356.44
425.495
398.001
378.232
364.594
356.102
425.571
397.964
378.138
364.432
355.869
553.359
548.971
554.739
559.427
571.662
566.381
571.627
565.719
566.819
560.83
566.945
561.689
455.501
456.984
460.379
465.691
472.905
481.776
455.504
456.922
460.162
465.166
471.791
479.734
452.954
449.476
454.59
451.284
458.322
455.4
464.228
462.034
472.19
470.67
481.636
479.847
491.648
501.526
510.69
518.957
525.578
530.2
488.474
497.33
505.713
513.128
519.04
523.011
459.725
461.4
461.087
458.787
454.548
461.26
462.961
462.651
460.331
456.049
464.771
466.528
466.223
463.856
459.472
470.27
472.116
471.822
469.381
464.838
477.743
479.718
479.446
476.91
472.15
486.948
489.098
488.868
486.225
481.201
459.731
461.41
461.1
458.802
454.565
461.199
462.904
462.598
460.282
456.003
464.553
466.312
466.014
463.654
459.279
469.734
471.58
471.296
468.869
464.344
476.601
478.569
478.308
475.797
471.075
484.845
486.974
486.754
484.15
479.194
457.098
458.739
458.43
456.171
452.01
453.512
455.11
454.807
452.606
448.552
458.79
460.458
460.151
457.87
453.661
455.381
457.008
456.708
454.481
450.374
462.648
464.376
464.074
461.739
457.419
459.635
461.327
461.031
458.746
454.516
468.758
470.583
470.291
467.873
463.375
466.497
468.296
468.011
465.633
461.205
477.005
478.97
478.7
476.176
471.439
475.442
477.394
477.135
474.642
469.956
486.805
488.954
488.726
486.086
481.068
484.967
487.103
486.891
484.29
479.333
497.222
499.597
499.443
496.699
491.386
507.546
510.193
510.159
507.345
501.753
517.192
520.163
520.306
517.477
511.641
525.982
529.323
529.696
526.907
520.876
533.102
536.78
537.358
534.62
528.446
538.056
541.917
542.579
539.834
533.541
493.94
496.268
496.115
493.423
488.212
503.186
505.747
505.692
502.93
497.467
511.977
514.8
514.872
512.071
506.376
519.793
522.882
523.099
520.284
514.393
526.047
529.359
529.695
526.873
520.825
530.23
533.664
534.047
531.195
525.03
455.934
458.302
462.638
468.992
477.389
487.631
455.941
458.248
462.425
468.438
476.149
485.224
453.391
449.921
455.925
452.648
460.625
457.768
467.626
465.563
476.844
475.502
487.871
486.47
498.953
510.006
519.71
527.265
531.536
532.381
495.011
504.578
513.037
519.572
523.512
524.617
460.17
461.848
461.531
459.222
454.969
462.613
464.322
464.002
461.653
457.327
467.091
468.861
468.537
466.119
461.659
473.656
475.519
475.193
472.674
468.017
482.34
484.333
484.009
481.361
476.443
492.945
495.108
494.798
491.998
486.76
460.18
461.861
461.548
459.24
454.988
462.561
464.273
463.956
461.611
457.288
466.875
468.647
468.328
465.916
461.464
473.09
474.952
474.632
472.128
467.49
481.067
483.052
482.739
480.119
475.243
490.468
492.609
492.314
489.564
484.407
457.547
459.192
458.879
456.611
452.436
453.97
455.571
455.265
453.055
448.986
460.16
461.838
461.521
459.211
454.958
456.782
458.418
458.108
455.853
451.701
465.012
466.754
466.432
464.047
459.65
462.065
463.772
463.456
461.119
456.81
472.244
474.086
473.76
471.264
466.65
470.116
471.933
471.613
469.153
464.603
481.775
483.757
483.432
480.791
475.89
480.39
482.358
482.037
479.421
474.563
493.188
495.349
495.033
492.223
486.976
491.741
493.884
493.572
490.787
485.585
504.694
507.069
506.795
503.838
498.247
516.203
518.828
518.627
515.543
509.612
526.377
529.291
529.22
526.072
519.859
534.413
537.664
537.801
534.684
528.287
539.13
542.713
543.093
540.098
533.646
540.258
544.078
544.66
541.815
535.417
500.627
502.958
502.702
499.823
494.365
510.591
513.141
512.953
509.968
504.221
519.447
522.24
522.158
519.114
513.121
526.353
529.399
529.46
526.415
520.252
530.592
533.863
534.079
531.087
524.845
531.861
535.277
535.615
532.7
526.463
540.715
537.666
511.02
498.918
499.66
496.2
506.731
548.766
545.431
541.747
535.669
528.297
532.98
521.206
521.002
515.277
547.846
540.725
528.527
526.442
533.431
530.576
522.187
520.51
510.942
509.661
520.286
519.252
543.986
538.674
544.754
536.6
533.707
540.603
523.275
512.843
526.201
551.654
556.23
557.219
554.921
549.438
546.472
550.809
551.77
549.189
542.818
517.228
519.837
519.604
516.481
510.507
504.644
507.001
506.71
503.74
498.143
505.417
507.797
507.516
504.542
498.926
501.821
504.129
503.83
500.899
495.388
512.753
515.26
514.994
511.913
506.07
558.871
562.875
563.427
560.606
554.873
555.172
558.885
559.196
556.224
550.244
549.849
553.622
554.024
550.889
544.131
544.448
547.719
547.788
544.708
538.372
535.363
538.483
538.47
535.222
528.741
540.443
543.808
543.952
540.755
534.184
527.902
530.805
530.698
527.496
521.221
527.736
530.683
530.622
527.461
521.211
521.723
524.497
524.358
521.233
515.144
557.909
561.995
562.612
559.835
554.063
548.651
552.337
552.677
549.505
542.743
535.565
538.663
538.627
535.356
528.858
533.355
536.373
536.294
533.027
526.584
540.767
544.06
544.137
540.871
534.247
537.737
540.923
540.944
537.682
531.133
528.918
531.841
531.738
528.524
522.217
527.123
529.956
529.793
526.563
520.294
517.163
519.791
519.579
516.472
510.508
515.809
518.383
518.138
515.027
509.093
526.907
529.752
529.605
526.389
520.133
525.809
528.609
528.433
525.213
518.982
554.549
558.866
559.708
557.207
551.557
547.058
551.104
551.798
548.962
542.414
553.924
557.87
558.542
555.722
549.579
544.36
547.994
548.357
545.269
538.649
541.115
544.483
544.633
541.422
534.815
548.594
552.351
552.786
549.698
542.971
530.036
532.967
532.856
529.616
523.269
519.116
521.758
521.529
518.377
512.345
533.107
536.124
536.049
532.788
526.354
522.942
529.212
532.336
532.319
529.265
522.389
555.065
554.575
562.417
562.744
553.917
552.821
561.786
560.749
546.702
537.91
546.582
538.812
545.63
545.843
540.215
555.619
555.026
562.971
563.41
554.224
552.998
562.158
560.848
546.692
537.675
546.53
538.646
545.508
545.795
539.959
555.791
555.068
563.168
563.754
554.076
552.651
562.115
560.573
546.619
535.688
546.339
536.809
545.105
545.287
538.256
553.639
552.828
560.95
561.646
551.615
549.818
559.715
557.85
543.966
532.3
543.666
533.394
542.311
542.382
535.022
549.304
548.456
556.352
557.1
547.111
544.968
555.034
553.033
539.654
528.658
539.33
529.45
537.972
537.682
530.97
541.471
540.644
548.102
548.85
539.385
537.447
546.778
544.849
532.683
523.007
532.424
523.672
531.193
530.964
525.119
573.74
573.606
568.84
569.048
573.128
572.485
568.306
567.415
576.567
578.145
576.286
577.843
575.904
575.209
577.038
574.415
574.142
569.415
569.747
573.456
572.575
568.676
567.601
577.382
578.395
576.919
577.891
576.195
575.238
576.902
574.736
574.279
569.631
570.126
573.319
572.17
568.625
567.225
577.168
576.763
576.526
576.277
575.421
574.333
575.305
572.431
571.831
567.336
567.959
570.636
569.13
566.131
564.496
574.294
572.659
573.52
572.169
572.077
570.715
571.224
567.509
566.837
562.54
563.222
565.428
563.568
561.248
559.444
568.866
566.706
568.016
566.273
566.435
564.856
565.487
558.648
557.965
553.948
554.641
556.58
554.886
552.638
550.868
560.003
558.826
559.205
558.325
557.824
556.466
557.522
495.967
497.541
500.429
503.011
505.957
508.753
512.571
515.06
509.915
512.746
504.672
507.391
500.442
502.855
496.739
498.449
508.895
512.695
513.632
518.939
517.23
522.003
521.937
528.212
492.157
485.496
493.749
487.385
496.518
489.976
499.217
492.837
506.372
501.317
511.189
504.694
495.336
500.334
519.372
528.256
524.875
531.732
527.448
535.489
533.905
540.2
511.895
520.728
517.128
524.067
505.545
513.962
477.789
472.676
480.869
475.389
482.189
475.714
486.168
479.977
488.458
479.796
495.359
486.809
501.263
492.545
508.635
499.449
512.85
514.705
520.373
521.669
524.087
526.072
530.833
532.801
510.18
509.917
502.127
503.015
527.029
527.599
533.267
532.647
537.024
538.568
542.922
543.541
517.166
515.814
523.702
520.774
500.095
489.962
498.286
487.61
492.101
482.315
491.585
480.956
507.136
496.803
504.007
493.175
513.801
503.21
508.767
497.813
466.367
456.308
464.677
455.071
470.244
460.465
467.043
457.651
476.356
468.34
470.879
462.901
503.097
515.507
491.711
483.341
474.056
512.435
499.372
485.649
476.96
467.62
517.863
506.131
494.953
484.484
474.134
447.185
441.477
443.807
438.913
451.835
445.291
447.022
441.712
460.039
452.488
452.659
446.35
507.479
499.442
493.522
483.94
480.548
471.262
470.741
462.027
458.737
450.86
513.889
506.968
500.909
491.194
489.075
478.81
477.632
467.286
463.775
453.842
510.047
499.551
518.074
508.469
523.215
517.558
530.981
526.324
504.725
493.649
497.191
485.528
524.977
515.328
529.887
520.557
537.4
532.804
542.302
538.098
511.558
500.252
516.286
505.166
490.01
478.14
472.754
459.921
483.885
471.379
468.345
455.64
495.544
483.997
476.78
464.152
500.728
488.918
481.732
469.586
437.437
433.131
428.185
437.296
433.734
428.989
440.38
435.499
430.201
439.602
435.69
430.541
446.164
440.335
434.377
443.09
438.332
432.521
489.775
479.533
469.543
473.402
464.37
455.728
461.701
453.616
446.004
453.788
446.529
439.369
446.156
440.278
433.456
497.396
485.394
473.717
478.022
466.233
455.416
465.657
454.933
445.279
456.042
446.868
438.206
446.954
439.805
431.941
531.858
536.014
535.926
541.5
525.292
530.184
529.705
536.034
529.477
535.014
530.589
535.638
532.699
537.53
534.741
539.143
541.294
537.27
544.343
539.403
540.164
543.595
546.29
551.889
541.432
547.286
544.413
550.245
548.477
553.722
546.035
551.675
540.799
545.841
539.865
544.066
542.852
547.71
543.074
547.067
545.219
550.188
548.18
552.081
550.559
553.336
555.391
556.872
540.365
543.568
546.14
549.532
533.417
536.044
539.619
542.374
550.326
554.419
544.978
548.967
551.606
554.69
556.977
559.211
545.427
547.849
551.038
552.638
555.376
559.162
560.499
563.337
553.527
556.306
557.036
557.642
549.008
552.619
552.17
553.543
557.865
559.69
561.307
561.213
562.513
563.296
565.06
564.335
538.432
533.669
544.366
539.831
539.443
534.424
545.31
540.603
540.936
536.441
546.804
542.607
534.961
526.467
540.053
544.38
548.502
523.447
531.648
535.763
539.985
544.814
528.98
537.428
543.516
547.356
549.546
526.831
518.164
533.014
524.565
528.07
519.627
534.433
526.283
530.636
522.394
537.139
529.422
519.186
511.83
527.92
520.202
532.477
524.649
536.303
528.397
541.072
533.607
525.835
520.496
534.454
528.933
540.355
534.25
543.854
536.879
545.854
538.1
542.682
538.748
548.719
545.83
534.809
531.093
541.513
539.051
552.947
548.765
547.53
542.452
553.569
551.473
557.99
556.242
546.918
545.172
551.645
550.326
557.482
554.001
561.572
558.38
554.771
549.152
554.044
547.139
549.887
543.397
550.222
542.704
558.892
554.058
557.405
551.161
562.504
557.879
560.605
554.993
506.979
496.303
486.696
510.821
498.637
488.878
508.957
498.028
488.109
512.976
500.6
490.322
512.099
501.133
490.876
516.491
503.318
492.216
502.508
491.883
481.285
510.542
499.388
488.319
514.849
503.144
491.764
518.062
506.21
494.939
520.335
506.232
493.982
512.057
499.843
487.382
520.091
507.406
494.517
524.486
511.063
497.662
525.869
511.88
498.352
523.998
508.918
495.309
545.857
538.112
523.789
501.754
543.562
535.491
520.94
499.004
547.115
539.036
524.572
502.281
545.844
537.222
522.38
500.195
548.724
540.164
526.088
504.241
549.698
540.35
525.445
503.122
549.645
539.489
523.652
500.982
551.685
540.499
523.953
501.077
552.623
542.605
527.692
505.307
552.245
541.629
527.66
507.267
549.899
540.753
527.228
506.449
549.302
539.596
526.647
507.487
554.938
544.056
527.976
504.715
554.851
543.428
528.589
507.58
557.326
545.575
528.851
505.55
557.176
545.025
529.665
508.574
545.198
538.083
524.85
503.926
541.589
535.304
523.827
505.405
545.625
538.269
525.156
504.357
541.843
535.299
523.855
505.612
546.243
538.457
525.642
505.35
542.776
535.668
524.133
506.051
546.586
538.255
525.898
506.63
543.682
535.968
524.479
506.789
546.435
537.573
525.622
507.748
536.333
530.795
520.342
506.617
530.616
525.59
515.093
502.175
537.066
531.17
520.61
506.897
531.361
525.933
515.277
502.294
538.448
531.888
521.035
507.198
532.709
526.584
515.622
502.573
540.437
532.97
521.808
507.826
534.532
527.521
516.17
502.958
542.977
534.393
522.753
508.496
536.65
528.606
516.773
503.347
547.837
537.211
524.169
509.202
541.993
531.733
518.706
504.62
545.448
535.79
523.427
508.804
539.33
530.147
517.721
503.988
550.012
538.547
524.872
509.598
544.485
533.253
519.631
505.322
552.119
539.92
525.787
510.313
546.804
534.738
520.598
506.058
472.586
450.831
433.661
420.717
411.572
471.123
449.771
432.766
419.917
410.836
472.828
450.95
433.731
420.765
411.61
471.505
450.003
432.927
420.042
410.941
473.221
451.121
433.83
420.834
411.665
472.632
450.839
433.607
420.629
411.472
472.155
450.378
433.161
420.205
411.07
472.639
450.689
433.365
420.347
411.184
473.532
451.288
433.929
420.899
411.713
472.399
449.831
432.567
419.656
410.566
473.214
450.891
433.58
420.596
411.442
471.972
449.455
432.257
419.392
410.331
473.648
451.349
433.942
420.886
411.69
472.357
449.725
432.436
419.516
410.429
474.145
451.647
434.133
421.019
411.799
472.562
449.779
432.424
419.475
410.376
472.435
450.372
433.209
420.307
411.195
470.73
448.592
431.614
418.873
409.876
472.506
450.353
433.166
420.257
411.145
470.782
448.584
431.589
418.843
409.844
472.541
450.242
433.028
420.117
411.009
470.821
448.538
431.52
418.767
409.77
472.094
449.634
432.446
419.578
410.504
470.596
448.267
431.252
418.512
409.526
471.104
448.693
431.602
418.814
409.804
428.214
425.792
429.747
427.251
432.521
429.686
436.225
432.743
440.297
436.006
447.402
442.657
443.957
439.199
450.586
446.12
453.706
449.696
407.615
387.229
371.559
360.22
352.822
407.75
387.286
371.471
360.09
352.598
408.322
387.575
371.747
360.333
352.904
408.415
387.577
371.649
360.153
352.657
409.683
388.261
372.126
360.565
353.071
409.729
388.237
372.013
360.374
352.816
411.568
389.248
372.683
360.907
353.318
411.458
389.141
372.52
360.684
353.038
413.838
390.503
373.41
361.359
353.643
413.387
390.205
373.138
361.071
353.318
418.72
393.495
375.263
362.57
354.553
418.038
393.007
374.854
362.191
354.17