/*--------------------------------*- C++ -*----------------------------------*\
  =========                 |
  \\      /  F ield         | OpenFOAM: The Open Source CFD Toolbox
   \\    /   O peration     | Website:  https://openfoam.org
    \\  /    A nd           | Version:  13
     \\/     M anipulation  |
\*---------------------------------------------------------------------------*/
FoamFile
{
    format      ascii;
    class       volScalarField;
    location    "49.831886";
    object      T;
}
// * * * * * * * * * * * * * * * * * * * * * * * * * * * * * * * * * * * * * //

dimensions      [0 0 0 1 0 0 0];

internalField   nonuniform List<scalar> 
5712
(
738.166
737.778
737.131
736.539
735.595
734.995
733.483
732.997
733.926
733.354
735.587
735.009
736.806
736.259
737.729
737.313
735.1
734.314
734.078
732.999
732.532
731.529
731.593
730.326
739.497
741.705
739.084
741.15
738.517
740.629
737.876
739.875
736.298
737.476
735.203
736.692
739.307
738.054
732.819
730.958
731.769
730.39
730.482
728.916
729.243
728.062
735.031
733.092
733.891
732.43
736.808
734.926
744.241
745.777
743.197
744.796
743.153
745.079
741.924
743.697
741.568
744.165
739.662
742.074
738.193
740.578
736.518
738.94
734.483
734.13
732.862
732.686
731.076
730.63
729.79
729.346
735.84
736.276
737.751
737.816
731.498
731.495
730.269
730.511
728.635
728.272
727.555
727.36
734.285
735.005
732.911
733.983
738.781
741.685
739.869
743.137
740.844
743.824
741.484
744.884
737.086
739.907
738.547
741.748
735.592
738.367
737.51
740.659
747.862
751.201
748.418
751.729
746.846
749.953
747.86
751.018
745.136
747.52
746.914
749.511
736.786
732.747
740.468
743.25
746.305
733.328
737.602
742.001
744.973
748.272
732.257
736.056
739.752
743.278
746.772
754.294
755.823
755.981
757.333
752.72
754.476
754.914
756.375
749.984
751.952
753.089
754.83
734.276
735.844
738.953
741.1
743.281
745.518
746.744
748.961
751.384
753.612
732.951
734.208
737.214
739.436
741.233
743.779
745.264
748.027
750.399
753.323
735.213
737.714
733.431
735.648
731.031
731.751
729.442
729.85
737.692
740.654
739.437
742.585
731.926
734.15
730.962
733.086
728.173
728.561
727.267
727.563
736.11
739.126
735.132
738.08
742.579
746.185
748.687
753.082
743.989
747.776
749.628
753.943
741.284
744.774
747.788
752.111
740.065
743.59
746.499
750.589
756.319
757.04
758.378
756.605
756.929
758.155
755.305
756.187
757.602
755.838
756.227
757.545
753.219
754.364
755.936
754.678
755.249
756.725
737.781
740.014
742.426
743.404
745.377
747.532
747.662
749.379
751.298
750.716
752.17
754.015
753.772
754.555
756.28
735.997
738.497
741.222
742.427
745.062
747.789
746.829
749.175
751.641
750.409
752.194
754.393
753.761
754.77
756.757
727.991
727.183
727.291
726.258
730.037
729.038
729.23
728.001
727.626
726.019
727.431
725.939
727.145
725.716
726.805
725.469
725.676
726.343
725.233
726.019
725.403
724.856
725.472
724.562
727.043
726.026
725.226
724.355
724.596
723.774
724.535
723.686
724.398
722.978
724.674
723.347
724.181
722.724
724.255
722.915
723.969
722.386
723.601
722.166
723.323
722.072
722.604
721.586
726.124
725.423
725.221
724.441
728.263
727.651
727.201
726.541
723.848
722.924
724.635
723.783
724.347
723.598
723.481
722.86
726.205
725.594
725.245
724.768
723.082
722.183
722.293
721.53
722.701
721.478
721.938
721.23
723.331
722.01
722.685
721.853
722.08
721.009
721.288
720.695
721.396
720.507
720.721
720.236
724.464
725.165
723.125
723.851
724.432
725.174
723.019
723.774
724.381
725.048
722.85
723.526
726.791
729.334
725.207
723.959
722.639
729.864
727.345
725.87
724.641
723.236
728.838
726.361
724.595
723.414
722.474
726.378
728.053
725.076
726.7
726.272
727.87
724.874
726.431
726.005
727.514
724.484
725.933
730.553
731.849
727.879
729.193
726.364
727.71
725.204
726.573
723.882
725.247
729.259
730.011
726.718
727.476
725.003
725.906
723.91
725.018
723.094
724.466
725.261
725.524
724.256
724.242
727.565
727.755
726.356
726.19
722.917
723.252
723.781
724.347
723.49
723.266
722.763
722.471
725.425
725.058
724.605
724.153
722.23
722.381
721.582
721.672
722.108
722.813
721.768
722.875
722.894
723.801
722.378
723.638
721.472
722.006
721.246
722.214
720.941
721.41
720.781
721.627
730.339
732.627
734.806
729.507
732.087
734.271
730.016
732.331
734.559
729.12
731.717
733.995
729.527
731.796
734.058
728.495
731.212
733.642
733.607
735.818
738.236
730.983
733.265
735.725
729.527
731.904
734.4
728.498
730.865
733.278
727.816
730.671
733.318
731.409
733.801
736.535
728.937
731.366
734.101
727.573
730.141
732.952
726.976
729.676
732.509
727.15
730.141
733.05
722.419
723.422
726.008
730.761
722.852
723.927
726.601
731.399
722.234
723.277
725.873
730.672
722.516
723.66
726.36
731.173
721.989
723.092
725.581
730.238
721.895
723.126
725.781
730.538
721.985
723.351
726.193
731.068
721.726
723.248
726.204
731.11
721.423
722.736
725.331
730.043
721.505
722.915
725.295
729.536
721.822
723.005
725.354
729.728
721.951
723.226
725.44
729.437
721.105
722.545
725.341
730.226
721.12
722.647
725.165
729.506
720.78
722.345
725.237
730.096
720.785
722.416
725.007
729.329
722.489
723.387
725.741
730.216
723.086
723.853
725.867
729.78
722.436
723.364
725.687
730.134
723.06
723.862
725.866
729.744
722.361
723.348
725.598
729.917
722.934
723.819
725.828
729.66
722.34
723.405
725.546
729.612
722.815
723.791
725.777
729.503
722.399
723.549
725.596
729.322
724.014
724.666
726.486
729.291
725.062
725.642
727.509
730.154
723.898
724.603
726.438
729.238
724.94
725.583
727.474
730.13
723.687
724.494
726.373
729.193
724.729
725.484
727.423
730.084
723.383
724.329
726.25
729.083
724.442
725.338
727.337
730.021
722.991
724.112
726.101
728.964
724.107
725.172
727.246
729.959
722.25
723.697
725.904
728.874
723.254
724.685
726.942
729.753
722.613
723.906
726.008
728.927
723.677
724.93
727.095
729.852
721.926
723.504
725.809
728.831
722.869
724.457
726.805
729.644
721.618
723.306
725.676
728.723
722.519
724.237
726.661
729.53
738.04
743.95
749.031
753.217
756.501
738.418
744.266
749.335
753.518
756.802
737.998
743.929
749.017
753.206
756.492
738.354
744.223
749.301
753.489
756.774
737.917
743.892
748.993
753.187
756.475
738.083
743.987
749.078
753.272
756.56
738.238
744.15
749.249
753.448
756.738
738.154
744.087
749.201
753.408
756.702
737.867
743.864
748.975
753.175
756.465
738.183
744.32
749.454
753.656
756.946
737.936
743.974
749.087
753.284
756.573
738.28
744.424
749.554
753.753
757.041
737.864
743.867
748.985
753.19
756.482
738.221
744.371
749.512
753.719
757.01
737.777
743.807
748.941
753.153
756.449
738.203
744.381
749.535
753.749
757.043
738.086
744.095
749.191
753.378
756.662
738.538
744.642
749.747
753.933
757.215
738.078
744.106
749.208
753.397
756.682
738.528
744.643
749.753
753.941
757.223
738.088
744.154
749.266
753.459
756.745
738.535
744.67
749.786
753.977
757.261
738.225
744.353
749.477
753.673
756.96
738.614
744.767
749.89
754.083
757.369
738.497
744.649
749.776
753.973
757.259
763.213
764.204
762.777
763.788
761.982
763.103
760.976
762.286
759.98
761.492
758.421
760.167
759.218
760.925
757.634
759.318
756.816
758.35
774.078
786.18
796.557
804.828
810.682
773.913
786.102
796.597
804.923
810.875
773.881
786.076
796.491
804.779
810.639
773.736
786.027
796.532
804.907
810.846
773.484
785.852
796.343
804.668
810.543
773.353
785.812
796.391
804.802
810.754
772.949
785.532
796.127
804.505
810.404
772.864
785.52
796.194
804.654
810.629
772.329
785.128
795.846
804.292
810.22
772.338
785.177
795.954
804.47
810.469
770.991
784.131
795.092
803.689
809.679
771.135
784.285
795.283
803.925
809.967
771.661
784.643
795.488
804.011
809.973
771.769
784.768
795.656
804.235
810.255
770.32
783.605
794.678
803.347
809.369
770.418
783.724
794.836
803.553
809.625
769.634
783.061
794.245
802.989
809.047
769.634
783.122
794.347
803.146
809.271
725.63
727.073
728.354
726.699
728.94
728.707
728.624
728.309
729.095
728.666
731.047
730.545
732.098
731.526
730.631
730.152
730.065
729.733
729.965
729.707
726.732
726.368
730.754
732.526
733.122
733.273
731.643
730.801
732.85
730.464
734.642
737.356
730.954
731.703
733.798
731.523
732.447
732.627
729.111
728.976
730.112
729.715
729.192
728.767
729.262
729.915
732.243
731.794
730.943
730.506
727.422
726.879
727.826
727.39
728.05
728.199
729.411
730.953
729.378
724.069
722.725
722.169
722.267
723.039
724.388
723.266
722.788
723.003
723.991
729.398
728.773
728.719
729.271
730.458
731.215
730.64
730.638
731.23
732.437
731.792
731.194
731.165
731.737
732.932
731.963
731.39
731.388
731.98
733.187
730.3
729.69
729.649
730.212
731.403
727.879
726.131
725.227
725.068
725.631
729.732
727.841
726.88
726.715
727.366
728.38
727.06
726.374
726.441
727.356
731.749
729.926
729.037
728.956
729.756
734.519
732.644
731.738
731.649
732.455
729.297
728.344
727.976
728.286
729.342
729.777
728.577
727.996
728.15
729.12
731.925
730.766
730.219
730.398
731.383
729.975
729.132
728.864
729.249
730.344
730.802
729.86
729.501
729.819
730.878
731.105
730.288
730.044
730.446
731.55
726.442
724.956
724.22
724.175
724.848
727.137
726.028
725.52
725.716
726.702
728.539
727.671
727.381
727.748
728.834
728.212
727.421
727.203
727.626
728.742
727.573
726.664
726.336
726.673
727.742
727.237
726.42
726.178
726.582
727.688
727.832
727.125
726.99
727.478
728.63
728.494
727.793
727.663
728.154
729.308
730.832
730.138
730.013
730.508
731.662
730.422
729.774
729.697
730.229
731.403
729.466
728.699
728.504
728.944
730.069
729.073
728.359
728.214
728.694
729.842
724.836
723.454
722.847
722.904
723.633
725.02
723.957
723.515
723.759
724.768
725.68
724.448
723.859
723.958
724.794
725.73
724.799
724.457
724.782
725.842
726.477
725.621
725.343
725.718
726.807
726.4
725.336
724.863
725.081
726.08
727.969
727.246
727.095
727.571
728.716
729.576
728.925
728.845
729.375
730.55
727.896
727.128
726.934
727.374
728.501
726.526
727.345
726.587
727.492
724.597
725.542
724.565
725.404
726.654
726.754
727.519
727.331
724.617
724.661
725.48
725.212
728.571
730.586
729.309
731.246
728.576
730.4
729.44
731.232
729.463
728.703
729.025
728.529
730.12
730.886
728.58
729.476
728.156
729.147
726.606
727.55
726.024
726.945
730.492
731.46
729.887
731.004
731.96
733.135
732.445
734.072
733.019
734.57
732.306
734.24
733.047
734.762
731.964
734.584
732.461
734.79
733.455
735.843
734.815
737.255
727.381
727.898
727.781
728.369
724.839
725.008
725.266
725.413
730.21
731.697
729.851
731.202
728.43
728.944
729.269
729.661
725.894
725.937
726.664
726.578
730.872
732.299
731.79
733.083
732.751
735.652
735.172
738.465
732.514
735.639
734.749
738.218
733.392
736.171
735.76
738.961
734.37
737.114
736.582
739.729
732.578
733.528
734.389
735.889
732.425
733.206
734.652
736.093
732.144
732.565
735.127
736.318
727.288
724.662
729.874
732.666
736.252
724.581
727.076
729.661
732.601
736.877
724.799
727.625
730.897
734.5
738.253
735.079
735.788
739.856
741.268
734.355
735.066
739.567
740.978
733.279
733.868
739.215
740.638
724.643
725.029
727.307
727.772
730.108
730.582
733.507
734.115
739.664
741.189
724.818
725.218
727.93
728.877
731.494
732.702
735.656
737.11
741.321
743.179
728.659
730.294
729.079
730.751
725.11
725.28
725.465
725.538
733.112
735.52
732.589
734.872
729.436
731.353
730.145
732.191
725.89
726.066
726.515
726.757
733.48
736.181
734.271
737.137
737.972
741.104
744.217
748.203
737.168
740.204
743.096
746.822
738.583
741.829
745.164
749.277
739.153
742.617
745.663
749.704
736.07
736.694
740.37
740.477
735.369
736.06
740.189
740.238
734.336
735.33
740.007
740.112
725.821
727.221
728.635
729.96
731.343
732.498
734.74
735.834
740.347
740.382
726.016
727.527
730.178
731.58
733.859
734.925
737.597
738.102
741.49
741.25
721.429
721.366
722.264
721.9
722.84
722.779
723.719
723.338
720.457
719.761
721.251
720.529
720.476
719.83
721.336
720.638
721.183
720.457
721.064
720.527
719.972
720.662
722.671
723.589
724.101
725
722.195
723.237
721.859
722.787
721.643
722.595
719.353
719.107
720.098
719.811
719.354
719.043
720.137
719.756
719.396
718.964
719.979
719.457
720.859
720.241
721.702
720.919
721.115
721.059
721.497
721.323
722.719
722.691
723.129
723.028
720.418
720.184
720.072
719.974
722.059
721.724
722.729
722.23
723.722
723.493
724.435
724.063
720.949
720.527
721.583
720.974
719.659
719.16
719.546
719.302
719.348
718.961
719.379
719.192
720.16
719.538
719.838
719.522
720.751
720.005
720.232
719.84
719.03
719.16
718.836
719.05
719.089
719.232
718.842
719.077
719.225
719.344
718.885
719.096
720.975
722.551
719.956
719.289
718.992
722.568
721.057
720.059
719.399
719.142
722.521
720.956
719.916
719.35
719.205
719.695
720.627
719.687
720.689
719.687
720.558
719.637
720.597
719.691
720.466
719.562
720.442
722.584
722.959
721.074
721.535
720.166
720.738
719.608
720.275
719.499
720.301
722.437
722.598
720.901
721.125
719.952
720.346
719.499
720.097
719.512
720.313
720.843
720.797
721.15
720.936
722.451
722.264
722.823
722.432
720.172
720.28
719.924
720.165
721.645
721.303
722.15
721.828
723.36
722.846
723.923
723.434
720.586
720.606
721.036
721.089
719.713
720.166
719.795
720.576
719.527
720.089
719.616
720.451
720.022
720.428
720.058
720.846
720.439
720.873
720.388
721.186
721.767
722.839
722.149
723.412
721.62
722.77
722.033
723.37
721.481
722.752
721.853
723.403
723.744
725.147
722.398
723.829
721.647
723.087
721.275
722.756
721.72
723.544
723.242
724.857
721.879
723.563
721.286
723.046
721.26
723.095
721.884
723.95
719.761
721.645
724.802
729.947
720.411
722.289
725.484
730.641
719.716
721.59
724.737
729.92
720.336
722.195
725.362
730.501
719.678
721.541
724.532
729.549
720.062
721.892
724.93
729.963
720.754
722.52
725.62
730.677
721.279
722.946
725.995
730.966
719.841
721.664
724.584
729.522
720.157
721.998
724.641
729.051
719.749
721.608
724.392
729.076
720.1
721.976
724.572
728.825
720.096
721.86
724.858
729.878
720.293
722.083
724.754
729.186
720.432
722.108
725.069
729.975
720.505
722.224
724.866
729.218
719.551
721.433
724.417
729.317
719.852
721.726
724.426
728.781
719.59
721.468
724.408
729.277
719.914
721.79
724.466
728.78
719.686
721.562
724.394
729.121
719.99
721.872
724.516
728.766
719.879
721.758
724.43
728.871
720.1
721.987
724.563
728.686
720.151
722.042
724.565
728.614
720.552
722.423
724.973
728.146
721.472
723.345
725.945
728.924
720.547
722.424
724.965
728.126
721.47
723.352
725.952
728.931
720.557
722.444
724.99
728.156
721.483
723.38
725.984
728.95
720.572
722.473
724.994
728.149
721.498
723.415
726.014
728.974
720.609
722.525
725.009
728.138
721.538
723.479
726.071
729.022
720.878
722.77
725.242
728.341
721.715
723.652
726.213
729.164
720.718
722.633
725.118
728.235
721.59
723.541
726.121
729.069
721.091
722.938
725.398
728.489
721.932
723.825
726.356
729.28
721.339
723.116
725.538
728.606
722.209
724.028
726.512
729.409
737.555
743.651
748.843
753.09
756.402
737.955
743.978
749.153
753.396
756.706
737.555
743.656
748.846
753.091
756.402
737.948
743.972
749.143
753.382
756.691
737.526
743.653
748.843
753.086
756.395
737.746
743.778
748.947
753.183
756.491
738.003
744.004
749.157
753.386
756.689
738.065
744.032
749.166
753.385
756.684
737.563
743.678
748.858
753.096
756.403
737.914
744.157
749.352
753.588
756.892
737.578
743.756
748.951
753.192
756.5
737.958
744.23
749.432
753.672
756.977
737.655
743.737
748.904
753.135
756.439
738.037
744.259
749.442
753.672
756.973
737.704
743.762
748.913
753.134
756.434
738.139
744.342
749.51
753.732
757.03
737.577
743.786
748.997
753.248
756.56
738.013
744.326
749.55
753.801
757.111
737.599
743.815
749.026
753.275
756.586
738.026
744.342
749.564
753.814
757.124
737.658
743.894
749.103
753.349
756.659
738.077
744.395
749.614
753.861
757.17
737.841
744.122
749.332
753.575
756.884
738.209
744.525
749.738
753.981
757.289
738.143
744.436
749.643
753.884
757.189
750.066
751.195
750.22
751.374
750.572
751.758
751.133
752.298
752.037
753.049
754.342
755.658
753.311
754.456
755.226
756.674
756.024
757.492
764.407
779.203
791.309
800.628
806.989
764.091
779.041
791.305
800.696
807.168
764.549
779.305
791.383
800.686
807.037
764.278
779.187
791.386
800.794
807.234
764.839
779.508
791.529
800.798
807.133
764.561
779.382
791.524
800.899
807.324
765.291
779.821
791.756
800.976
807.287
764.977
779.666
791.729
801.059
807.463
765.935
780.26
792.079
801.234
807.514
765.515
780.027
791.993
801.269
807.648
767.475
781.344
792.89
801.881
808.073
767.204
781.186
792.845
801.933
808.204
766.694
780.773
792.458
801.538
807.779
766.289
780.535
792.364
801.56
807.893
768.215
781.918
793.336
802.241
808.385
768.073
781.847
793.347
802.33
808.541
768.937
782.499
793.797
802.62
808.717
768.87
782.506
793.854
802.741
808.909
724.449
725.811
724.814
723.392
721.471
722.285
721.453
722.377
722.864
723.823
722.864
723.693
739.109
738.846
738.201
737.181
735.808
734.156
739.227
738.976
738.362
737.406
736.151
734.68
739.777
740.785
739.48
740.446
738.756
739.626
737.598
738.289
736.049
736.581
734.25
734.821
732.387
730.715
729.285
728.113
727.241
726.614
733.113
731.597
730.239
729.103
728.227
727.62
737.874
737.387
737.472
738.133
739.373
737.609
737.119
737.202
737.86
739.099
736.959
736.464
736.541
737.196
738.433
735.931
735.426
735.495
736.143
737.377
734.545
734.026
734.079
734.716
735.945
732.873
732.331
732.362
732.98
734.201
737.991
737.502
737.586
738.246
739.485
737.738
737.246
737.327
737.984
739.222
737.118
736.621
736.696
737.348
738.584
736.153
735.646
735.711
736.356
737.589
734.885
734.363
734.413
735.047
736.274
733.394
732.85
732.878
733.494
734.712
738.544
738.058
738.145
738.806
740.045
739.553
739.068
739.155
739.816
741.055
738.244
737.756
737.84
738.499
739.737
739.212
738.724
738.808
739.467
740.705
737.516
737.022
737.1
737.755
738.992
738.386
737.893
737.971
738.626
739.861
736.348
735.845
735.914
736.562
737.796
737.04
736.536
736.604
737.251
738.483
734.785
734.267
734.32
734.957
736.185
735.316
734.795
734.845
735.478
736.704
732.966
732.424
732.454
733.072
734.292
733.534
732.988
733.013
733.626
734.843
731.074
730.498
730.493
731.084
732.291
729.359
728.733
728.679
729.231
730.418
727.866
727.171
727.049
727.548
728.706
726.605
725.818
725.61
726.042
727.164
725.629
724.75
724.463
724.834
725.921
724.931
724.001
723.674
724.014
725.083
731.801
731.225
731.221
731.812
733.018
730.247
729.629
729.582
730.14
731.329
728.841
728.169
728.07
728.586
729.753
727.648
726.916
726.758
727.229
728.373
726.718
725.931
725.724
726.157
727.28
726.079
725.263
725.032
725.447
726.56
738.986
738.477
737.586
736.317
734.691
732.78
739.105
738.61
737.752
736.554
735.064
733.375
739.65
740.651
739.097
740.043
738.115
738.95
736.693
737.333
734.878
735.348
732.78
733.239
730.768
728.934
727.476
726.506
726.115
726.206
731.633
730.028
728.714
727.801
727.342
727.305
737.751
737.265
737.351
738.013
739.253
737.241
736.753
736.838
737.499
738.739
736.345
735.854
735.936
736.594
737.834
735.07
734.572
734.648
735.302
736.541
733.435
732.926
732.991
733.638
734.873
731.508
730.982
731.03
731.665
732.895
737.869
737.381
737.466
738.126
739.365
737.372
736.883
736.966
737.626
738.865
736.51
736.017
736.097
736.753
737.992
735.306
734.805
734.878
735.53
736.767
733.806
733.294
733.355
733.999
735.233
732.1
731.571
731.615
732.246
733.474
738.416
737.931
738.018
738.68
739.92
739.419
738.935
739.023
739.684
740.923
737.862
737.375
737.461
738.122
739.362
738.81
738.324
738.41
739.071
740.31
736.876
736.386
736.469
737.128
738.367
737.713
737.223
737.306
737.964
739.203
735.448
734.951
735.027
735.682
736.921
736.088
735.591
735.667
736.321
737.558
733.622
733.114
733.18
733.828
735.063
734.092
733.583
733.647
734.293
735.527
731.51
730.985
731.035
731.671
732.902
731.968
731.442
731.491
732.125
733.355
729.473
728.921
728.943
729.557
730.779
727.604
727.012
726.995
727.579
728.785
726.092
725.441
725.367
725.905
727.088
725.039
724.302
724.147
724.622
725.77
724.537
723.701
723.458
723.865
724.974
724.537
723.624
723.314
723.669
724.747
730.336
729.781
729.8
730.411
731.63
728.699
728.108
728.091
728.674
729.878
727.341
726.701
726.636
727.182
728.367
726.373
725.672
725.55
726.05
727.211
725.853
725.091
724.911
725.367
726.503
725.772
724.966
724.745
725.168
726.287
726.018
725.813
728.706
730.768
730.924
731.391
729.497
724.853
725.457
725.137
726.855
726.653
726.364
727.686
727.953
728.741
724.714
724.899
726.397
726.535
725.642
725.886
727.005
727.292
729.18
729.172
727.618
727.6
725.33
725.354
724.695
725.261
725.484
724.861
726.864
728.524
726.497
723.403
722.123
721.614
721.751
722.561
723.86
722.771
722.324
722.564
723.568
727.383
726.801
726.793
727.383
728.593
729.478
728.931
728.959
729.578
730.802
729.626
729.07
729.088
729.698
730.917
730.104
729.562
729.594
730.215
731.44
728.189
727.622
727.629
728.232
729.448
722.552
721.399
720.952
721.148
721.959
723.223
722.119
721.723
721.969
722.852
723.432
722.501
722.176
722.52
723.591
724.847
723.858
723.546
723.872
724.892
725.198
724.475
724.333
724.82
725.975
724.791
723.968
723.739
724.158
725.274
726.287
725.619
725.527
726.052
727.227
726.527
725.83
725.711
726.215
727.378
727.36
726.712
726.638
727.176
728.357
722.451
721.321
720.891
721.101
721.942
723.277
722.408
722.135
722.518
723.612
724.967
724.268
724.147
724.65
725.814
725.132
724.462
724.369
724.893
726.068
724.164
723.42
723.258
723.728
724.874
724.447
723.74
723.611
724.108
725.268
725.626
724.982
724.913
725.457
726.642
725.932
725.308
725.259
725.817
727.011
727.841
727.238
727.208
727.781
728.981
727.849
727.266
727.257
727.846
729.055
726.244
725.603
725.537
726.081
727.267
726.242
725.62
725.573
726.132
727.326
722.883
721.684
721.214
721.387
722.221
723.563
722.579
722.216
722.525
723.575
722.743
721.72
721.324
721.585
722.526
723.678
722.84
722.592
722.994
724.1
723.994
723.238
723.065
723.525
724.665
723.223
722.34
722.049
722.416
723.502
725.485
724.84
724.771
725.314
726.499
727.195
726.605
726.59
727.174
728.381
725.098
724.431
724.342
724.869
726.045
727.232
726.087
725.617
725.78
726.525
728.001
726.26
726.351
724.295
724.257
726.445
726.616
724.355
724.449
728.39
730.629
728.407
730.42
728.612
728.503
730.051
726.203
726.306
724.217
724.165
726.412
726.585
724.296
724.427
728.509
730.876
728.52
730.61
728.716
728.552
730.217
726.235
726.349
724.203
724.136
726.467
726.651
724.306
724.445
728.623
731.494
728.639
731.145
728.838
728.666
730.67
726.654
726.768
724.577
724.503
726.898
727.118
724.686
724.851
729.2
732.238
729.191
731.865
729.366
729.168
731.296
727.397
727.506
725.325
725.251
727.636
727.898
725.433
725.597
729.96
732.805
729.939
732.509
730.083
729.938
731.955
728.729
728.829
726.692
726.621
728.934
729.155
726.796
726.943
731.153
733.778
731.11
733.5
731.228
731.072
732.94
721.159
721.146
722.547
722.543
721.176
721.202
722.577
722.627
720.162
719.414
720.207
719.526
720.22
720.347
719.753
721.061
721.066
722.461
722.441
721.124
721.183
722.516
722.578
720.022
719.413
720.097
719.554
720.167
720.34
719.796
721.021
721.051
722.433
722.394
721.144
721.234
722.519
722.617
720.095
719.707
720.191
719.834
720.314
720.495
720.059
721.39
721.436
722.799
722.747
721.553
721.681
722.899
723.004
720.557
720.379
720.671
720.498
720.841
721.059
720.711
722.169
722.223
723.561
723.505
722.37
722.548
723.664
723.782
721.423
721.363
721.547
721.458
721.74
721.983
721.635
723.594
723.651
724.957
724.901
723.797
723.951
725.061
725.174
722.86
722.654
722.978
722.757
723.138
723.345
722.939
738.236
737.869
737.147
736.552
735.606
735.006
733.49
733.004
733.935
733.362
735.6
735.021
736.822
736.274
737.814
737.419
735.108
734.319
734.085
733.004
732.538
731.533
731.599
730.33
739.551
741.744
739.157
741.208
738.53
740.639
737.886
739.881
736.304
737.484
735.208
736.698
739.314
738.06
732.823
730.961
731.773
730.393
730.486
728.918
729.246
728.065
735.035
733.095
733.895
732.433
736.812
734.929
744.277
745.812
743.25
744.848
743.159
745.084
741.928
743.701
741.573
744.17
739.666
742.078
738.197
740.582
736.521
738.942
734.487
734.133
732.865
732.689
731.079
730.633
729.793
729.349
735.844
736.278
737.754
737.819
731.501
731.498
730.271
730.513
728.638
728.274
727.557
727.361
734.288
735.008
732.913
733.985
738.784
741.688
739.871
743.14
740.847
743.827
741.487
744.886
737.089
739.909
738.549
741.75
735.594
738.37
737.512
740.661
747.905
751.248
748.448
751.759
746.848
749.955
747.865
751.022
745.139
747.522
746.918
749.514
736.789
732.749
740.471
743.253
746.308
733.33
737.605
742.003
744.975
748.275
732.259
736.058
739.755
743.281
746.775
754.343
755.872
756.01
757.359
752.72
754.475
754.916
756.376
749.985
751.952
753.09
754.831
734.278
735.846
738.955
741.102
743.283
745.519
746.746
748.962
751.386
753.613
732.953
734.21
737.216
739.438
741.235
743.781
745.266
748.029
750.401
753.325
735.215
737.716
733.433
735.65
731.033
731.753
729.444
729.852
737.694
740.656
739.439
742.588
731.928
734.151
730.964
733.088
728.174
728.563
727.268
727.564
736.112
739.128
735.134
738.082
742.581
746.187
748.689
753.084
743.991
747.778
749.63
753.945
741.286
744.776
747.79
752.113
740.067
743.592
746.5
750.591
756.362
757.078
758.414
756.632
756.953
758.177
755.304
756.187
757.602
755.839
756.229
757.548
753.22
754.365
755.937
754.679
755.251
756.727
737.783
740.015
742.427
743.406
745.379
747.533
747.663
749.38
751.299
750.717
752.171
754.016
753.773
754.557
756.281
735.999
738.499
741.224
742.428
745.064
747.79
746.831
749.177
751.643
750.411
752.195
754.394
753.763
754.771
756.759
727.993
727.185
727.293
726.26
730.041
729.041
729.233
728.004
727.653
726.047
727.469
725.978
727.147
725.717
726.804
725.469
725.677
726.345
725.235
726.021
725.404
724.857
725.474
724.564
727.046
726.028
725.227
724.356
724.597
723.775
724.536
723.687
724.42
722.993
724.708
723.374
724.183
722.725
724.255
722.916
723.97
722.387
723.601
722.167
723.324
722.073
722.605
721.586
726.126
725.425
725.223
724.442
728.265
727.653
727.204
726.543
723.849
722.925
724.637
723.784
724.348
723.6
723.482
722.862
726.206
725.595
725.246
724.769
723.083
722.184
722.294
721.531
722.702
721.479
721.939
721.231
723.332
722.011
722.686
721.854
722.081
721.009
721.289
720.696
721.397
720.508
720.722
720.236
724.477
725.173
723.132
723.855
724.433
725.174
723.021
723.775
724.382
725.049
722.851
723.527
726.792
729.336
725.209
723.96
722.64
729.865
727.347
725.871
724.642
723.237
728.84
726.362
724.596
723.415
722.474
726.384
728.061
725.078
726.704
726.272
727.87
724.875
726.432
726.006
727.514
724.485
725.934
730.555
731.851
727.88
729.194
726.365
727.711
725.205
726.574
723.883
725.248
729.26
730.013
726.719
727.477
725.004
725.907
723.912
725.019
723.095
724.467
725.263
725.526
724.257
724.243
727.567
727.757
726.357
726.191
722.918
723.253
723.782
724.348
723.491
723.268
722.764
722.472
725.427
725.059
724.606
724.154
722.232
722.382
721.583
721.673
722.109
722.814
721.769
722.876
722.895
723.802
722.379
723.639
721.473
722.007
721.247
722.215
720.942
721.411
720.782
721.628
730.35
732.64
734.819
729.51
732.094
734.279
730.015
732.33
734.559
729.122
731.718
733.996
729.527
731.797
734.058
728.496
731.213
733.643
733.609
735.819
738.237
730.985
733.267
735.726
729.528
731.905
734.401
728.498
730.866
733.279
727.817
730.672
733.319
731.41
733.802
736.537
728.938
731.367
734.102
727.574
730.142
732.952
726.977
729.677
732.51
727.151
730.142
733.051
722.429
723.431
726.017
730.774
722.873
723.945
726.619
731.418
722.235
723.278
725.873
730.672
722.516
723.66
726.359
731.172
721.989
723.092
725.581
730.238
721.895
723.126
725.78
730.537
721.985
723.351
726.193
731.067
721.727
723.249
726.204
731.11
721.424
722.736
725.331
730.042
721.506
722.915
725.295
729.536
721.822
723.005
725.354
729.728
721.952
723.227
725.44
729.437
721.105
722.545
725.341
730.226
721.12
722.647
725.165
729.506
720.78
722.345
725.237
730.096
720.786
722.416
725.007
729.329
722.493
723.389
725.745
730.223
723.086
723.851
725.867
729.783
722.437
723.365
725.688
730.134
723.061
723.863
725.867
729.744
722.362
723.348
725.598
729.916
722.934
723.82
725.829
729.66
722.341
723.405
725.546
729.612
722.815
723.791
725.778
729.503
722.4
723.55
725.596
729.322
724.011
724.661
726.482
729.291
725.058
725.637
727.503
730.149
723.899
724.604
726.439
729.238
724.941
725.584
727.475
730.131
723.688
724.495
726.374
729.193
724.73
725.484
727.423
730.085
723.384
724.329
726.25
729.083
724.443
725.339
727.338
730.021
722.992
724.112
726.101
728.964
724.108
725.173
727.246
729.959
722.25
723.697
725.904
728.874
723.255
724.685
726.942
729.753
722.613
723.906
726.008
728.927
723.678
724.93
727.095
729.852
721.927
723.505
725.809
728.831
722.869
724.457
726.805
729.644
721.619
723.306
725.676
728.723
722.519
724.237
726.661
729.53
738.044
743.952
749.032
753.217
756.502
738.43
744.275
749.343
753.526
756.809
737.998
743.928
749.016
753.206
756.491
738.352
744.221
749.299
753.486
756.772
737.917
743.892
748.993
753.186
756.474
738.082
743.985
749.076
753.27
756.558
738.237
744.149
749.248
753.446
756.736
738.153
744.086
749.2
753.407
756.701
737.866
743.863
748.974
753.173
756.463
738.183
744.319
749.453
753.656
756.945
737.935
743.973
749.086
753.283
756.572
738.279
744.423
749.553
753.752
757.04
737.864
743.866
748.984
753.188
756.481
738.22
744.371
749.511
753.718
757.009
737.776
743.806
748.94
753.152
756.448
738.203
744.38
749.534
753.748
757.042
738.084
744.091
749.186
753.374
756.657
738.533
744.635
749.74
753.926
757.208
738.078
744.106
749.208
753.398
756.682
738.529
744.644
749.753
753.941
757.224
738.088
744.154
749.266
753.459
756.744
738.535
744.67
749.786
753.976
757.26
738.225
744.353
749.476
753.672
756.959
738.613
744.767
749.889
754.083
757.368
738.497
744.648
749.776
753.972
757.258
763.237
764.222
762.778
763.79
761.983
763.105
760.978
762.287
759.981
761.493
758.422
760.168
759.22
760.927
757.636
759.32
756.818
758.352
774.091
786.188
796.563
804.833
810.687
773.92
786.104
796.597
804.923
810.874
773.882
786.076
796.491
804.779
810.64
773.739
786.028
796.533
804.909
810.847
773.485
785.853
796.344
804.669
810.544
773.355
785.813
796.392
804.802
810.755
772.95
785.533
796.128
804.506
810.404
772.866
785.521
796.195
804.655
810.629
772.33
785.13
795.847
804.293
810.221
772.34
785.178
795.955
804.471
810.469
770.993
784.132