/*--------------------------------*- C++ -*----------------------------------*\
  =========                 |
  \\      /  F ield         | OpenFOAM: The Open Source CFD Toolbox
   \\    /   O peration     | Website:  https://openfoam.org
    \\  /    A nd           | Version:  12
     \\/     M anipulation  |
\*---------------------------------------------------------------------------*/
FoamFile
{
    format      ascii;
    class       volScalarField;
    location    "20";
    object      p;
}
// * * * * * * * * * * * * * * * * * * * * * * * * * * * * * * * * * * * * * //

dimensions      [0 2 -2 0 0 0 0];

internalField   nonuniform List<scalar> 
4480
(
0.0109211
0.010925
0.0109289
0.0109336
0.010939
0.0109448
0.0109506
0.0109559
0.01096
0.0109623
0.0109623
0.0109594
0.010953
0.0109428
0.0109285
0.0109103
0.0108883
0.0108628
0.0108343
0.0108036
0.0107711
0.0107376
0.0107038
0.0106701
0.0106371
0.0106052
0.0105746
0.0105458
0.0105187
0.0104935
0.0104702
0.0104487
0.0104291
0.0104111
0.0103947
0.0103798
0.0103663
0.010354
0.0103429
0.0103328
0.0103236
0.0103153
0.0103078
0.0103009
0.0102947
0.0102889
0.0102837
0.0102789
0.0102744
0.0102703
0.0102664
0.0102629
0.0102595
0.0102563
0.0102533
0.0102505
0.0102478
0.0102452
0.0102427
0.0102403
0.0102379
0.0102357
0.0102334
0.0102313
0.0102291
0.010227
0.0102249
0.0102229
0.0102209
0.0102188
0.0102168
0.0102148
0.0102129
0.0102109
0.0102089
0.0102069
0.0102049
0.0102029
0.0102009
0.0101989
0.0101969
0.0101949
0.0101929
0.0101908
0.0101888
0.0101867
0.0101846
0.0101825
0.0101803
0.0101782
0.010176
0.0101737
0.0101715
0.0101692
0.0101668
0.0101644
0.0101619
0.0101594
0.0101568
0.0101541
0.0101513
0.0101484
0.0101454
0.0101423
0.010139
0.0101355
0.0101318
0.0101279
0.0101237
0.0101192
0.0101143
0.010109
0.0101032
0.0100968
0.0100898
0.010082
0.0100733
0.0100639
0.010054
0.0100449
0.0100384
0.0100366
0.0100639
0.0102569
0.010814
0.0104936
0.00443875
0.00383352
0.00398987
0.00482699
0.0111986
0.0113787
0.0106863
0.0104114
0.0103262
0.0102814
0.0102494
0.0102267
0.010208
0.0101841
0.0109171
0.0109206
0.0109229
0.0109255
0.0109285
0.0109316
0.0109345
0.0109367
0.0109378
0.0109374
0.0109349
0.01093
0.0109221
0.0109112
0.0108969
0.0108793
0.0108586
0.0108351
0.0108092
0.0107814
0.0107521
0.0107221
0.0106917
0.0106614
0.0106317
0.0106027
0.010575
0.0105486
0.0105236
0.0105002
0.0104784
0.0104581
0.0104392
0.0104218
0.0104058
0.010391
0.0103774
0.0103649
0.0103535
0.010343
0.0103334
0.0103245
0.0103164
0.010309
0.0103021
0.0102959
0.0102901
0.0102847
0.0102797
0.0102751
0.0102709
0.0102669
0.0102631
0.0102596
0.0102563
0.0102532
0.0102502
0.0102473
0.0102446
0.010242
0.0102395
0.010237
0.0102347
0.0102323
0.0102301
0.0102279
0.0102257
0.0102235
0.0102214
0.0102193
0.0102172
0.0102152
0.0102131
0.0102111
0.010209
0.010207
0.010205
0.0102029
0.0102009
0.0101988
0.0101968
0.0101947
0.0101926
0.0101905
0.0101884
0.0101863
0.0101841
0.0101819
0.0101797
0.0101774
0.0101751
0.0101728
0.0101704
0.0101679
0.0101654
0.0101629
0.0101602
0.0101574
0.0101546
0.0101516
0.0101485
0.0101453
0.0101419
0.0101382
0.0101344
0.0101303
0.0101259
0.0101211
0.0101159
0.0101103
0.0101041
0.0100971
0.0100894
0.0100807
0.0100708
0.0100594
0.0100462
0.0100307
0.0100123
0.00998993
0.00996086
0.00991832
0.00985171
0.00975048
0.00952883
0.00870114
0.00705164
0.00677265
0.00695735
0.00750987
0.00924638
0.00999587
0.0101384
0.010182
0.0102019
0.0102039
0.010198
0.0101908
0.010182
0.0101594
0.0109138
0.0109178
0.0109199
0.0109222
0.0109249
0.0109277
0.0109302
0.0109321
0.0109329
0.0109322
0.0109295
0.0109244
0.0109164
0.0109053
0.010891
0.0108733
0.0108527
0.0108292
0.0108034
0.0107757
0.0107467
0.010717
0.010687
0.0106571
0.0106279
0.0105995
0.0105722
0.0105463
0.0105219
0.010499
0.0104777
0.0104578
0.0104393
0.0104222
0.0104064
0.0103919
0.0103784
0.0103661
0.0103547
0.0103443
0.0103347
0.0103258
0.0103177
0.0103102
0.0103033
0.010297
0.0102911
0.0102857
0.0102807
0.010276
0.0102717
0.0102676
0.0102638
0.0102603
0.0102569
0.0102537
0.0102507
0.0102478
0.010245
0.0102424
0.0102398
0.0102373
0.0102349
0.0102326
0.0102303
0.0102281
0.0102259
0.0102237
0.0102216
0.0102194
0.0102173
0.0102153
0.0102132
0.0102111
0.0102091
0.010207
0.010205
0.0102029
0.0102009
0.0101988
0.0101967
0.0101947
0.0101926
0.0101905
0.0101883
0.0101862
0.010184
0.0101818
0.0101795
0.0101773
0.0101749
0.0101726
0.0101702
0.0101677
0.0101652
0.0101625
0.0101598
0.010157
0.0101541
0.0101511
0.010148
0.0101446
0.0101411
0.0101374
0.0101335
0.0101293
0.0101247
0.0101198
0.0101144
0.0101086
0.0101021
0.0100948
0.0100867
0.0100775
0.010067
0.0100548
0.0100405
0.0100233
0.0100022
0.00997542
0.00993949
0.00988792
0.00980859
0.00967786
0.00943604
0.00895903
0.00832253
0.00815142
0.00828555
0.00864904
0.00934606
0.00980789
0.0100144
0.0101077
0.0101508
0.0101684
0.0101737
0.0101737
0.0101686
0.0101427
0.0109103
0.0109146
0.0109168
0.0109191
0.0109218
0.0109247
0.0109274
0.0109294
0.0109304
0.0109299
0.0109273
0.0109222
0.0109142
0.010903
0.0108884
0.0108704
0.0108493
0.0108254
0.0107992
0.0107711
0.0107418
0.0107118
0.0106816
0.0106518
0.0106226
0.0105944
0.0105674
0.0105419
0.0105179
0.0104954
0.0104744
0.010455
0.0104369
0.0104202
0.0104048
0.0103905
0.0103774
0.0103653
0.0103542
0.0103439
0.0103344
0.0103257
0.0103177
0.0103103
0.0103035
0.0102972
0.0102913
0.010286
0.0102809
0.0102763
0.0102719
0.0102679
0.0102641
0.0102605
0.0102571
0.0102539
0.0102509
0.010248
0.0102452
0.0102425
0.01024
0.0102375
0.0102351
0.0102327
0.0102304
0.0102282
0.010226
0.0102238
0.0102216
0.0102195
0.0102174
0.0102153
0.0102133
0.0102112
0.0102091
0.0102071
0.010205
0.010203
0.0102009
0.0101988
0.0101968
0.0101947
0.0101926
0.0101904
0.0101883
0.0101862
0.010184
0.0101818
0.0101795
0.0101772
0.0101749
0.0101725
0.0101701
0.0101676
0.0101651
0.0101624
0.0101597
0.0101569
0.010154
0.010151
0.0101478
0.0101444
0.0101409
0.0101372
0.0101332
0.0101289
0.0101244
0.0101194
0.010114
0.0101081
0.0101016
0.0100943
0.0100861
0.0100769
0.0100662
0.0100539
0.0100394
0.0100218
0.0100003
0.00997292
0.00993693
0.00988763
0.00981757
0.00971445
0.00955527
0.00930615
0.00900907
0.00892075
0.0090183
0.00924793
0.00959788
0.00985511
0.0100007
0.0100809
0.0101247
0.010147
0.0101571
0.0101608
0.0101578
0.01013
0.0109065
0.0109109
0.010913
0.0109154
0.0109182
0.0109213
0.0109241
0.0109264
0.0109277
0.0109274
0.010925
0.0109199
0.0109118
0.0109003
0.0108853
0.0108668
0.0108451
0.0108205
0.0107935
0.0107648
0.010735
0.0107046
0.0106742
0.0106442
0.0106151
0.0105871
0.0105605
0.0105354
0.0105119
0.01049
0.0104696
0.0104507
0.0104332
0.010417
0.0104021
0.0103883
0.0103755
0.0103638
0.010353
0.010343
0.0103337
0.0103252
0.0103174
0.0103101
0.0103034
0.0102971
0.0102914
0.010286
0.0102811
0.0102764
0.0102721
0.0102681
0.0102643
0.0102607
0.0102573
0.0102541
0.0102511
0.0102482
0.0102454
0.0102427
0.0102401
0.0102376
0.0102352
0.0102328
0.0102305
0.0102283
0.0102261
0.0102239
0.0102217
0.0102196
0.0102175
0.0102154
0.0102133
0.0102112
0.0102092
0.0102071
0.0102051
0.010203
0.0102009
0.0101989
0.0101968
0.0101947
0.0101926
0.0101905
0.0101883
0.0101862
0.010184
0.0101817
0.0101795
0.0101772
0.0101749
0.0101725
0.0101701
0.0101676
0.010165
0.0101624
0.0101597
0.0101569
0.0101539
0.0101509
0.0101477
0.0101444
0.0101408
0.0101371
0.0101331
0.0101289
0.0101243
0.0101193
0.010114
0.0101081
0.0101016
0.0100944
0.0100863
0.0100771
0.0100666
0.0100545
0.0100402
0.0100232
0.0100024
0.00997656
0.00994359
0.00990053
0.00984339
0.00976709
0.00966483
0.0095307
0.00939303
0.0093575
0.00942858
0.00957155
0.00975499
0.00990505
0.0100056
0.0100699
0.0101095
0.0101323
0.0101443
0.01015
0.0101484
0.0101209
0.0109026
0.0109065
0.0109086
0.0109111
0.0109142
0.0109175
0.0109207
0.0109235
0.0109251
0.0109252
0.010923
0.0109181
0.0109098
0.0108979
0.0108823
0.010863
0.0108403
0.0108147
0.0107867
0.010757
0.0107264
0.0106953
0.0106645
0.0106343
0.0106052
0.0105774
0.0105512
0.0105266
0.0105037
0.0104824
0.0104627
0.0104445
0.0104277
0.0104122
0.0103979
0.0103847
0.0103725
0.0103612
0.0103508
0.0103412
0.0103323
0.0103241
0.0103164
0.0103094
0.0103028
0.0102967
0.0102911
0.0102858
0.0102809
0.0102764
0.0102721
0.0102681
0.0102643
0.0102608
0.0102574
0.0102542
0.0102512
0.0102483
0.0102455
0.0102428
0.0102402
0.0102377
0.0102353
0.010233
0.0102306
0.0102284
0.0102262
0.010224
0.0102218
0.0102197
0.0102176
0.0102155
0.0102134
0.0102113
0.0102092
0.0102072
0.0102051
0.0102031
0.010201
0.0101989
0.0101968
0.0101947
0.0101926
0.0101905
0.0101884
0.0101862
0.010184
0.0101818
0.0101795
0.0101773
0.0101749
0.0101725
0.0101701
0.0101676
0.0101651
0.0101625
0.0101597
0.0101569
0.010154
0.010151
0.0101478
0.0101445
0.010141
0.0101373
0.0101334
0.0101292
0.0101246
0.0101198
0.0101145
0.0101087
0.0101024
0.0100953
0.0100875
0.0100786
0.0100686
0.010057
0.0100435
0.0100277
0.0100087
0.00998572
0.00995739
0.00992212
0.00987812
0.00982383
0.00975863
0.00968547
0.00962298
0.0096134
0.00966319
0.00975435
0.00985842
0.00994987
0.0100199
0.0100696
0.010103
0.0101238
0.0101357
0.010142
0.0101414
0.0101162
0.0108985
0.0109015
0.0109036
0.0109063
0.0109096
0.0109134
0.0109172
0.0109205
0.0109227
0.0109233
0.0109215
0.0109166
0.0109081
0.0108957
0.0108792
0.0108587
0.0108347
0.0108077
0.0107783
0.0107474
0.0107156
0.0106836
0.0106522
0.0106217
0.0105925
0.010565
0.0105391
0.0105151
0.0104929
0.0104725
0.0104536
0.0104363
0.0104204
0.0104057
0.0103922
0.0103797
0.0103682
0.0103575
0.0103477
0.0103385
0.0103301
0.0103222
0.0103149
0.0103081
0.0103018
0.0102959
0.0102904
0.0102853
0.0102805
0.0102761
0.0102719
0.0102679
0.0102642
0.0102607
0.0102574
0.0102542
0.0102512
0.0102483
0.0102456
0.0102429
0.0102403
0.0102378
0.0102354
0.010233
0.0102307
0.0102285
0.0102262
0.0102241
0.0102219
0.0102198
0.0102176
0.0102155
0.0102135
0.0102114
0.0102093
0.0102073
0.0102052
0.0102031
0.0102011
0.010199
0.0101969
0.0101948
0.0101927
0.0101906
0.0101884
0.0101863
0.0101841
0.0101819
0.0101796
0.0101774
0.010175
0.0101727
0.0101703
0.0101678
0.0101653
0.0101626
0.01016
0.0101572
0.0101543
0.0101513
0.0101482
0.0101449
0.0101415
0.0101378
0.010134
0.0101299
0.0101255
0.0101207
0.0101156
0.0101101
0.010104
0.0100973
0.0100898
0.0100815
0.0100721
0.0100614
0.0100492
0.010035
0.0100185
0.0099989
0.00997572
0.0099482
0.00991584
0.00987875
0.00983829
0.00979868
0.0097708
0.0097722
0.00980678
0.00986626
0.00993222
0.00999049
0.0100389
0.0100761
0.0101028
0.0101205
0.0101313
0.0101374
0.0101373
0.0101158
0.010894
0.0108957
0.0108977
0.0109007
0.0109045
0.0109088
0.0109132
0.0109173
0.0109203
0.0109214
0.01092
0.0109152
0.0109064
0.0108932
0.0108755
0.0108536
0.0108279
0.010799
0.0107678
0.0107352
0.010702
0.010669
0.0106368
0.0106059
0.0105768
0.0105494
0.0105242
0.0105009
0.0104796
0.0104601
0.0104423
0.010426
0.0104111
0.0103975
0.0103849
0.0103734
0.0103627
0.0103528
0.0103436
0.010335
0.0103271
0.0103197
0.0103128
0.0103063
0.0103003
0.0102947
0.0102894
0.0102845
0.0102799
0.0102755
0.0102714
0.0102676
0.010264
0.0102605
0.0102572
0.0102541
0.0102512
0.0102483
0.0102456
0.0102429
0.0102404
0.0102379
0.0102355
0.0102331
0.0102308
0.0102285
0.0102263
0.0102241
0.010222
0.0102198
0.0102177
0.0102156
0.0102135
0.0102115
0.0102094
0.0102073
0.0102053
0.0102032
0.0102011
0.0101991
0.010197
0.0101949
0.0101928
0.0101907
0.0101886
0.0101864
0.0101842
0.010182
0.0101798
0.0101775
0.0101752
0.0101729
0.0101705
0.010168
0.0101655
0.010163
0.0101603
0.0101576
0.0101548
0.0101518
0.0101488
0.0101456
0.0101422
0.0101387
0.0101349
0.010131
0.0101267
0.0101222
0.0101173
0.0101121
0.0101063
0.0101001
0.0100932
0.0100855
0.010077
0.0100674
0.0100566
0.0100444
0.0100304
0.0100144
0.00999608
0.00997537
0.00995236
0.00992777
0.0099033
0.00988229
0.00987076
0.00987641
0.00990102
0.00994033
0.00998493
0.0100248
0.0100585
0.0100858
0.0101065
0.010121
0.0101302
0.0101357
0.010136
0.0101191
0.0108891
0.0108888
0.0108908
0.0108941
0.0108983
0.0109033
0.0109086
0.0109135
0.0109174
0.0109193
0.0109183
0.0109135
0.0109042
0.01089
0.0108708
0.010847
0.010819
0.0107879
0.0107545
0.0107199
0.0106851
0.0106508
0.0106178
0.0105866
0.0105574
0.0105305
0.010506
0.0104837
0.0104635
0.0104452
0.0104286
0.0104137
0.0104
0.0103876
0.0103762
0.0103657
0.010356
0.010347
0.0103386
0.0103307
0.0103234
0.0103165
0.0103101
0.0103041
0.0102984
0.0102931
0.0102881
0.0102834
0.010279
0.0102748
0.0102709
0.0102671
0.0102636
0.0102602
0.010257
0.010254
0.010251
0.0102482
0.0102455
0.0102429
0.0102404
0.0102379
0.0102355
0.0102332
0.0102309
0.0102286
0.0102264
0.0102242
0.0102221
0.0102199
0.0102178
0.0102157
0.0102136
0.0102116
0.0102095
0.0102074
0.0102054
0.0102033
0.0102013
0.0101992
0.0101971
0.010195
0.0101929
0.0101908
0.0101887
0.0101866
0.0101844
0.0101822
0.01018
0.0101778
0.0101755
0.0101732
0.0101708
0.0101684
0.0101659
0.0101634
0.0101608
0.0101581
0.0101554
0.0101525
0.0101495
0.0101464
0.0101432
0.0101398
0.0101362
0.0101324
0.0101284
0.0101242
0.0101196
0.0101147
0.0101094
0.0101036
0.0100973
0.0100905
0.0100829
0.0100745
0.0100653
0.010055
0.0100435
0.0100308
0.0100168
0.0100016
0.00998572
0.00996985
0.00995545
0.00994481
0.00994123
0.00994817
0.00996626
0.00999301
0.0100236
0.0100523
0.0100768
0.0100969
0.0101127
0.0101242
0.0101319
0.0101366
0.0101372
0.0101252
0.0108833
0.0108807
0.0108826
0.0108862
0.010891
0.0108967
0.0109029
0.010909
0.0109139
0.0109166
0.0109161
0.0109112
0.0109012
0.0108857
0.0108645
0.0108382
0.0108076
0.0107737
0.0107376
0.0107007
0.010664
0.0106284
0.0105946
0.0105631
0.0105342
0.0105079
0.0104843
0.0104633
0.0104444
0.0104277
0.0104127
0.0103992
0.0103871
0.0103761
0.010366
0.0103568
0.0103482
0.0103402
0.0103327
0.0103257
0.0103191
0.0103129
0.010307
0.0103014
0.0102962
0.0102912
0.0102865
0.0102821
0.0102779
0.0102739
0.0102701
0.0102665
0.0102631
0.0102598
0.0102567
0.0102537
0.0102509
0.0102481
0.0102454
0.0102428
0.0102403
0.0102379
0.0102355
0.0102332
0.0102309
0.0102287
0.0102265
0.0102243
0.0102221
0.01022
0.0102179
0.0102158
0.0102137
0.0102117
0.0102096
0.0102075
0.0102055
0.0102034
0.0102014
0.0101993
0.0101973
0.0101952
0.0101931
0.010191
0.0101889
0.0101868
0.0101846
0.0101825
0.0101803
0.0101781
0.0101758
0.0101735
0.0101712
0.0101688
0.0101664
0.0101639
0.0101614
0.0101588
0.0101561
0.0101534
0.0101505
0.0101475
0.0101444
0.0101412
0.0101378
0.0101342
0.0101305
0.0101265
0.0101223
0.0101177
0.0101129
0.0101077
0.0101021
0.0100961
0.0100895
0.0100824
0.0100746
0.0100662
0.0100571
0.0100472
0.0100368
0.0100261
0.0100154
0.0100054
0.00999733
0.00999254
0.00999282
0.00999975
0.0100134
0.0100323
0.0100537
0.0100745
0.0100929
0.0101082
0.0101203
0.0101294
0.0101357
0.0101397
0.0101407
0.0101332
0.0108762
0.0108708
0.0108726
0.0108768
0.0108822
0.0108887
0.0108959
0.0109032
0.0109093
0.010913
0.010913
0.010908
0.010897
0.0108797
0.0108561
0.0108267
0.0107928
0.0107555
0.0107164
0.0106769
0.0106381
0.0106011
0.0105666
0.010535
0.0105066
0.0104813
0.0104591
0.0104396
0.0104225
0.0104075
0.0103944
0.0103827
0.0103724
0.010363
0.0103545
0.0103467
0.0103394
0.0103326
0.0103261
0.01032
0.0103142
0.0103087
0.0103034
0.0102984
0.0102936
0.0102891
0.0102847
0.0102806
0.0102766
0.0102729
0.0102693
0.0102658
0.0102625
0.0102594
0.0102564
0.0102534
0.0102506
0.0102479
0.0102453
0.0102428
0.0102403
0.0102379
0.0102355
0.0102332
0.0102309
0.0102287
0.0102265
0.0102244
0.0102222
0.0102201
0.010218
0.0102159
0.0102138
0.0102118
0.0102097
0.0102077
0.0102056
0.0102036
0.0102015
0.0101995
0.0101974
0.0101954
0.0101933
0.0101912
0.0101891
0.010187
0.0101849
0.0101828
0.0101806
0.0101784
0.0101762
0.010174
0.0101717
0.0101694
0.010167
0.0101646
0.0101621
0.0101596
0.010157
0.0101544
0.0101516
0.0101488
0.0101458
0.0101428
0.0101396
0.0101363
0.0101328
0.0101291
0.0101253
0.0101212
0.0101169
0.0101123
0.0101074
0.0101022
0.0100966
0.0100907
0.0100843
0.0100776
0.0100705
0.0100631
0.0100556
0.0100482
0.0100413
0.0100354
0.0100312
0.0100297
0.0100319
0.0100383
0.0100489
0.0100627
0.0100781
0.0100933
0.0101072
0.0101191
0.0101286
0.0101359
0.0101411
0.0101445
0.0101458
0.0101426
0.0108674
0.0108587
0.0108605
0.0108653
0.0108715
0.0108789
0.0108872
0.0108957
0.0109032
0.010908
0.0109085
0.0109033
0.0108911
0.0108715
0.0108448
0.0108117
0.0107738
0.0107326
0.01069
0.0106475
0.0106066
0.0105683
0.0105333
0.0105019
0.0104744
0.0104505
0.01043
0.0104125
0.0103975
0.0103847
0.0103738
0.0103643
0.0103559
0.0103485
0.0103417
0.0103355
0.0103297
0.0103241
0.0103188
0.0103138
0.0103088
0.0103041
0.0102995
0.0102951
0.0102908
0.0102867
0.0102827
0.0102789
0.0102752
0.0102717
0.0102683
0.010265
0.0102619
0.0102588
0.0102559
0.0102531
0.0102504
0.0102477
0.0102452
0.0102427
0.0102402
0.0102378
0.0102355
0.0102332
0.010231
0.0102288
0.0102266
0.0102244
0.0102223
0.0102202
0.0102181
0.010216
0.010214
0.0102119
0.0102098
0.0102078
0.0102058
0.0102037
0.0102017
0.0101997
0.0101976
0.0101956
0.0101935
0.0101914
0.0101894
0.0101873
0.0101852
0.0101831
0.010181
0.0101788
0.0101766
0.0101744
0.0101722
0.0101699
0.0101677
0.0101653
0.0101629
0.0101605
0.010158
0.0101555
0.0101529
0.0101502
0.0101474
0.0101446
0.0101416
0.0101386
0.0101354
0.010132
0.0101286
0.0101249
0.0101211
0.0101171
0.010113
0.0101085
0.0101039
0.0100991
0.010094
0.0100888
0.0100835
0.0100781
0.0100729
0.010068
0.0100638
0.0100606
0.010059
0.0100594
0.0100623
0.0100681
0.0100765
0.0100869
0.0100984
0.0101098
0.0101203
0.0101295
0.0101372
0.0101432
0.0101476
0.0101505
0.0101521
0.0101527
0.0108562
0.0108439
0.0108456
0.010851
0.0108583
0.010867
0.0108764
0.0108861
0.0108951
0.0109012
0.0109024
0.0108967
0.0108829
0.0108604
0.0108298
0.0107923
0.0107496
0.0107039
0.0106574
0.0106118
0.0105688
0.0105293
0.0104941
0.0104635
0.0104373
0.0104153
0.0103971
0.010382
0.0103696
0.0103595
0.010351
0.010344
0.010338
0.0103327
0.0103278
0.0103234
0.0103191
0.010315
0.010311
0.010307
0.0103031
0.0102992
0.0102953
0.0102915
0.0102878
0.0102841
0.0102805
0.0102771
0.0102737
0.0102704
0.0102672
0.0102641
0.0102611
0.0102582
0.0102554
0.0102527
0.0102501
0.0102475
0.010245
0.0102425
0.0102401
0.0102378
0.0102355
0.0102332
0.010231
0.0102288
0.0102266
0.0102245
0.0102224
0.0102203
0.0102182
0.0102161
0.0102141
0.010212
0.01021
0.0102079
0.0102059
0.0102039
0.0102019
0.0101998
0.0101978
0.0101958
0.0101937
0.0101917
0.0101897
0.0101876
0.0101855
0.0101834
0.0101814
0.0101792
0.0101771
0.010175
0.0101728
0.0101706
0.0101684
0.0101661
0.0101638
0.0101615
0.0101591
0.0101567
0.0101543
0.0101517
0.0101492
0.0101465
0.0101438
0.010141
0.0101381
0.0101351
0.010132
0.0101289
0.0101256
0.0101222
0.0101186
0.010115
0.0101113
0.0101074
0.0101035
0.0100996
0.0100958
0.010092
0.0100886
0.0100856
0.0100833
0.010082
0.0100819
0.0100834
0.0100866
0.0100918
0.0100986
0.0101068
0.0101155
0.0101243
0.0101324
0.0101397
0.0101459
0.0101509
0.0101547
0.0101574
0.0101593
0.0101629
0.0108421
0.0108258
0.0108273
0.0108335
0.0108418
0.010852
0.010863
0.0108739
0.0108844
0.010892
0.0108939
0.0108876
0.0108717
0.0108458
0.0108104
0.0107675
0.0107193
0.0106686
0.0106177
0.010569
0.0105239
0.0104837
0.0104488
0.0104194
0.0103952
0.0103758
0.0103603
0.0103483
0.010339
0.0103318
0.0103264
0.0103221
0.0103186
0.0103157
0.010313
0.0103105
0.010308
0.0103054
0.0103027
0.0102999
0.0102969
0.0102939
0.0102908
0.0102877
0.0102845
0.0102814
0.0102782
0.0102751
0.010272
0.010269
0.0102661
0.0102632
0.0102604
0.0102576
0.0102549
0.0102523
0.0102497
0.0102472
0.0102448
0.0102424
0.01024
0.0102377
0.0102354
0.0102332
0.010231
0.0102288
0.0102267
0.0102246
0.0102225
0.0102204
0.0102183
0.0102162
0.0102142
0.0102122
0.0102101
0.0102081
0.0102061
0.0102041
0.010202
0.0102
0.010198
0.010196
0.010194
0.010192
0.01019
0.0101879
0.0101859
0.0101838
0.0101818
0.0101797
0.0101776
0.0101755
0.0101734
0.0101713
0.0101692
0.010167
0.0101648
0.0101626
0.0101603
0.010158
0.0101557
0.0101534
0.010151
0.0101485
0.0101461
0.0101435
0.010141
0.0101383
0.0101356
0.0101329
0.0101301
0.0101272
0.0101243
0.0101214
0.0101185
0.0101155
0.0101127
0.0101099
0.0101072
0.0101048
0.0101027
0.0101012
0.0101003
0.0101002
0.0101011
0.0101032
0.0101065
0.0101111
0.0101169
0.0101234
0.0101303
0.0101372
0.0101436
0.0101495
0.0101546
0.0101588
0.0101622
0.0101647
0.0101669
0.010173
0.0108241
0.0108035
0.0108048
0.0108119
0.0108214
0.0108332
0.0108463
0.0108589
0.0108705
0.0108798
0.0108825
0.0108755
0.010857
0.0108267
0.0107858
0.0107364
0.0106819
0.0106255
0.0105701
0.0105182
0.0104715
0.0104309
0.010397
0.0103696
0.0103482
0.010332
0.01032
0.0103115
0.0103058
0.0103022
0.0103
0.0102989
0.0102982
0.0102979
0.0102975
0.0102971
0.0102963
0.0102953
0.010294
0.0102925
0.0102906
0.0102885
0.0102862
0.0102837
0.0102812
0.0102785
0.0102758
0.0102731
0.0102703
0.0102676
0.0102648
0.0102622
0.0102595
0.0102569
0.0102543
0.0102518
0.0102494
0.0102469
0.0102445
0.0102422
0.0102399
0.0102376
0.0102354
0.0102332
0.010231
0.0102289
0.0102267
0.0102246
0.0102225
0.0102205
0.0102184
0.0102163
0.0102143
0.0102123
0.0102103
0.0102082
0.0102062
0.0102042
0.0102022
0.0102002
0.0101982
0.0101963
0.0101943
0.0101923
0.0101903
0.0101883
0.0101863
0.0101842
0.0101822
0.0101802
0.0101782
0.0101761
0.0101741
0.010172
0.01017
0.0101679
0.0101658
0.0101637
0.0101616
0.0101594
0.0101573
0.0101551
0.0101529
0.0101507
0.0101484
0.0101462
0.0101439
0.0101416
0.0101393
0.0101369
0.0101346
0.0101323
0.01013
0.0101277
0.0101255
0.0101233
0.0101213
0.0101194
0.0101178
0.0101164
0.0101154
0.0101149
0.010115
0.0101158
0.0101173
0.0101197
0.0101231
0.0101272
0.0101321
0.0101375
0.0101431
0.0101487
0.010154
0.0101588
0.0101631
0.0101668
0.0101699
0.0101722
0.0101747
0.0101827
0.0108013
0.0107762
0.0107774
0.0107854
0.0107962
0.0108098
0.0108252
0.0108401
0.010853
0.0108638
0.0108675
0.0108597
0.0108381
0.0108026
0.0107549
0.0106982
0.0106365
0.0105739
0.0105139
0.010459
0.0104111
0.010371
0.0103389
0.0103144
0.0102966
0.0102843
0.0102765
0.0102722
0.0102706
0.0102709
0.0102724
0.0102746
0.0102771
0.0102795
0.0102816
0.0102833
0.0102844
0.0102851
0.0102852
0.0102849
0.0102841
0.0102829
0.0102815
0.0102797
0.0102777
0.0102756
0.0102733
0.0102709
0.0102685
0.0102661
0.0102636
0.0102611
0.0102586
0.0102562
0.0102537
0.0102513
0.010249
0.0102466
0.0102443
0.010242
0.0102398
0.0102375
0.0102353
0.0102332
0.010231
0.0102289
0.0102268
0.0102247
0.0102226
0.0102205
0.0102185
0.0102165
0.0102144
0.0102124
0.0102104
0.0102084
0.0102064
0.0102044
0.0102024
0.0102005
0.0101985
0.0101965
0.0101945
0.0101926
0.0101906
0.0101886
0.0101866
0.0101847
0.0101827
0.0101807
0.0101787
0.0101768
0.0101748
0.0101728
0.0101708
0.0101688
0.0101668
0.0101648
0.0101628
0.0101608
0.0101588
0.0101568
0.0101548
0.0101528
0.0101508
0.0101488
0.0101468
0.0101448
0.0101429
0.0101409
0.010139
0.0101372
0.0101354
0.0101337
0.0101321
0.0101307
0.0101294
0.0101283
0.0101275
0.0101269
0.0101268
0.0101271
0.0101278
0.0101292
0.0101312
0.0101338
0.010137
0.0101409
0.0101452
0.0101497
0.0101545
0.0101591
0.0101635
0.0101676
0.0101713
0.0101747
0.0101775
0.0101797
0.0101824
0.010192
0.0107725
0.0107431
0.0107442
0.0107529
0.0107651
0.0107808
0.0107987
0.0108165
0.0108314
0.0108434
0.0108484
0.0108396
0.0108144
0.0107726
0.0107169
0.0106518
0.0105822
0.0105131
0.0104485
0.0103912
0.0103429
0.0103042
0.0102749
0.0102544
0.010241
0.0102334
0.0102304
0.0102309
0.0102339
0.0102385
0.010244
0.0102498
0.0102555
0.0102608
0.0102654
0.0102693
0.0102725
0.0102748
0.0102764
0.0102773
0.0102776
0.0102774
0.0102767
0.0102756
0.0102742
0.0102726
0.0102708
0.0102688
0.0102667
0.0102645
0.0102623
0.01026
0.0102577
0.0102554
0.0102531
0.0102508
0.0102485
0.0102463
0.010244
0.0102418
0.0102396
0.0102374
0.0102353
0.0102331
0.010231
0.0102289
0.0102268
0.0102247
0.0102227
0.0102206
0.0102186
0.0102166
0.0102146
0.0102125
0.0102106
0.0102086
0.0102066
0.0102046
0.0102026
0.0102007
0.0101987
0.0101968
0.0101948
0.0101929
0.0101909
0.010189
0.010187
0.0101851
0.0101832
0.0101812
0.0101793
0.0101774
0.0101755
0.0101736
0.0101717
0.0101698
0.0101679
0.010166
0.0101641
0.0101622
0.0101604
0.0101585
0.0101567
0.0101549
0.0101531
0.0101514
0.0101497
0.010148
0.0101464
0.0101448
0.0101433
0.0101419
0.0101406
0.0101395
0.0101384
0.0101376
0.0101369
0.0101364
0.0101363
0.0101364
0.0101369
0.0101378
0.0101391
0.0101409
0.0101431
0.0101458
0.010149
0.0101526
0.0101564
0.0101604
0.0101645
0.0101685
0.0101723
0.0101759
0.0101792
0.0101822
0.0101849
0.0101871
0.01019
0.0102006
0.0107366
0.0107031
0.0107041
0.0107135
0.0107271
0.0107449
0.0107658
0.0107871
0.0108049
0.010818
0.0108243
0.0108148
0.0107852
0.0107361
0.0106713
0.0105965
0.0105184
0.0104426
0.0103738
0.0103149
0.0102672
0.0102311
0.0102058
0.0101902
0.0101823
0.0101801
0.0101826
0.0101884
0.0101965
0.0102057
0.0102154
0.010225
0.010234
0.0102422
0.0102494
0.0102556
0.0102606
0.0102646
0.0102677
0.0102698
0.0102712
0.0102719
0.010272
0.0102716
0.0102708
0.0102697
0.0102683
0.0102667
0.0102649
0.010263
0.010261
0.0102589
0.0102568
0.0102546
0.0102525
0.0102503
0.0102481
0.0102459
0.0102437
0.0102416
0.0102394
0.0102373
0.0102352
0.0102331
0.010231
0.0102289
0.0102268
0.0102248
0.0102227
0.0102207
0.0102187
0.0102167
0.0102147
0.0102127
0.0102107
0.0102087
0.0102067
0.0102048
0.0102028
0.0102009
0.0101989
0.010197
0.0101951
0.0101932
0.0101912
0.0101893
0.0101874
0.0101855
0.0101836
0.0101818
0.0101799
0.010178
0.0101762
0.0101743
0.0101725
0.0101707
0.0101689
0.0101671
0.0101654
0.0101636
0.0101619
0.0101603
0.0101586
0.010157
0.0101555
0.010154
0.0101525
0.0101511
0.0101498
0.0101486
0.0101475
0.0101465
0.0101456
0.0101449
0.0101443
0.0101439
0.0101438
0.0101439
0.0101443
0.0101449
0.0101459
0.0101472
0.0101489
0.010151
0.0101534
0.0101562
0.0101593
0.0101627
0.0101662
0.0101698
0.0101735
0.010177
0.0101804
0.0101836
0.0101866
0.0101895
0.0101921
0.0101942
0.0101972
0.0102087
0.0106924
0.0106553
0.0106562
0.0106662
0.010681
0.0107009
0.010725
0.0107504
0.0107724
0.0107871
0.0107948
0.0107846
0.0107503
0.0106928
0.0106174
0.010532
0.0104448
0.0103625
0.0102902
0.0102307
0.0101849
0.0101527
0.0101327
0.0101231
0.0101215
0.0101255
0.0101341
0.0101457
0.0101591
0.0101731
0.0101872
0.0102006
0.010213
0.0102241
0.0102339
0.0102422
0.0102491
0.0102548
0.0102592
0.0102626
0.010265
0.0102665
0.0102674
0.0102677
0.0102674
0.0102668
0.0102658
0.0102645
0.0102631
0.0102614
0.0102597
0.0102578
0.0102559
0.0102539
0.0102518
0.0102497
0.0102477
0.0102456
0.0102435
0.0102414
0.0102393
0.0102372
0.0102351
0.010233
0.0102309
0.0102289
0.0102268
0.0102248
0.0102228
0.0102208
0.0102188
0.0102168
0.0102148
0.0102128
0.0102108
0.0102089
0.0102069
0.010205
0.010203
0.0102011
0.0101992
0.0101973
0.0101954
0.0101935
0.0101916
0.0101897
0.0101878
0.010186
0.0101841
0.0101823
0.0101805
0.0101787
0.0101769
0.0101751
0.0101734
0.0101716
0.0101699
0.0101683
0.0101666
0.010165
0.0101635
0.0101619
0.0101605
0.0101591
0.0101577
0.0101564
0.0101552
0.0101541
0.0101531
0.0101522
0.0101514
0.0101507
0.0101502
0.0101499
0.0101498
0.0101498
0.0101501
0.0101507
0.0101515
0.0101526
0.0101539
0.0101556
0.0101576
0.0101599
0.0101625
0.0101653
0.0101683
0.0101715
0.0101748
0.0101782
0.0101815
0.0101847
0.0101878
0.0101907
0.0101935
0.0101963
0.0101988
0.0102009
0.010204
0.010216
0.0106386
0.0105988
0.0105995
0.0106099
0.0106256
0.0106475
0.0106751
0.0107053
0.0107325
0.0107503
0.0107594
0.0107489
0.0107094
0.0106423
0.010555
0.0104581
0.0103615
0.0102732
0.0101984
0.0101397
0.0100975
0.0100707
0.0100575
0.0100548
0.0100599
0.0100709
0.0100861
0.0101038
0.0101226
0.0101416
0.01016
0.0101772
0.0101929
0.0102068
0.010219
0.0102295
0.0102382
0.0102454
0.0102511
0.0102556
0.010259
0.0102614
0.010263
0.0102639
0.0102642
0.010264
0.0102634
0.0102625
0.0102613
0.0102599
0.0102584
0.0102567
0.0102549
0.0102531
0.0102512
0.0102492
0.0102472
0.0102452
0.0102432
0.0102411
0.0102391
0.010237
0.010235
0.0102329
0.0102309
0.0102289
0.0102269
0.0102248
0.0102228
0.0102208
0.0102188
0.0102169
0.0102149
0.0102129
0.010211
0.010209
0.0102071
0.0102051
0.0102032
0.0102013
0.0101994
0.0101975
0.0101956
0.0101937
0.0101919
0.01019
0.0101882
0.0101864
0.0101846
0.0101828
0.010181
0.0101793
0.0101776
0.0101759
0.0101742
0.0101725
0.0101709
0.0101694
0.0101678
0.0101664
0.0101649
0.0101636
0.0101623
0.010161
0.0101599
0.0101588
0.0101578
0.0101569
0.0101562
0.0101555
0.0101551
0.0101547
0.0101546
0.0101546
0.0101548
0.0101552
0.0101559
0.0101568
0.010158
0.0101594
0.0101611
0.010163
0.0101652
0.0101677
0.0101703
0.0101732
0.0101762
0.0101793
0.0101824
0.0101856
0.0101887
0.0101917
0.0101945
0.0101973
0.0102
0.0102026
0.0102051
0.0102072
0.0102104
0.0102228
0.0105741
0.0105332
0.0105335
0.0105437
0.0105597
0.0105834
0.0106145
0.0106502
0.0106842
0.0107073
0.0107177
0.0107076
0.0106628
0.0105848
0.0104843
0.0103749
0.010269
0.0101755
0.0100998
0.0100437
0.0100067
0.00998699
0.00998176
0.00998697
0.00999958
0.0100179
0.0100399
0.0100637
0.0100881
0.0101119
0.0101345
0.0101553
0.0101741
0.0101907
0.0102052
0.0102176
0.010228
0.0102366
0.0102436
0.0102492
0.0102534
0.0102566
0.0102588
0.0102603
0.0102611
0.0102613
0.0102611
0.0102605
0.0102596
0.0102585
0.0102572
0.0102557
0.0102541
0.0102523
0.0102505
0.0102487
0.0102468
0.0102448
0.0102429
0.0102409
0.0102389
0.0102369
0.0102349
0.0102329
0.0102309
0.0102289
0.0102269
0.0102249
0.0102229
0.0102209
0.0102189
0.0102169
0.010215
0.010213
0.0102111
0.0102091
0.0102072
0.0102053
0.0102034
0.0102015
0.0101996
0.0101977
0.0101959
0.010194
0.0101922
0.0101904
0.0101886
0.0101868
0.010185
0.0101833
0.0101816
0.0101799
0.0101782
0.0101766
0.010175
0.0101734
0.0101719
0.0101704
0.010169
0.0101676
0.0101663
0.0101651
0.0101639
0.0101629
0.0101619
0.010161
0.0101602
0.0101596
0.0101591
0.0101587
0.0101585
0.0101584
0.0101585
0.0101589
0.0101594
0.0101601
0.0101611
0.0101623
0.0101638
0.0101655
0.0101674
0.0101696
0.0101719
0.0101745
0.0101772
0.0101801
0.0101831
0.0101861
0.0101892
0.0101921
0.0101951
0.0101979
0.0102007
0.0102033
0.0102059
0.0102084
0.0102109
0.010213
0.0102162
0.0102288
0.0104985
0.0104581
0.0104579
0.0104671
0.0104825
0.0105072
0.0105417
0.0105837
0.010626
0.0106573
0.0106705
0.0106612
0.0106111
0.0105212