/*--------------------------------*- C++ -*----------------------------------*\
  =========                 |
  \\      /  F ield         | OpenFOAM: The Open Source CFD Toolbox
   \\    /   O peration     | Website:  https://openfoam.org
    \\  /    A nd           | Version:  12
     \\/     M anipulation  |
\*---------------------------------------------------------------------------*/
FoamFile
{
    format      ascii;
    class       surfaceScalarField;
    location    "20";
    object      phi;
}
// * * * * * * * * * * * * * * * * * * * * * * * * * * * * * * * * * * * * * //

dimensions      [0 3 -1 0 0 0 0];

internalField   nonuniform List<scalar> 
8788
(
8.49549e-08
-8.49549e-08
2.47812e-07
-1.62857e-07
5.05242e-07
-2.5743e-07
8.82691e-07
-3.7745e-07
1.40299e-06
-5.20303e-07
2.08478e-06
-6.81785e-07
2.94142e-06
-8.56641e-07
3.97956e-06
-1.03814e-06
5.19772e-06
-1.21816e-06
6.58536e-06
-1.38763e-06
8.12259e-06
-1.53724e-06
9.78077e-06
-1.65818e-06
1.15238e-05
-1.74301e-06
1.33101e-05
-1.78632e-06
1.50953e-05
-1.78523e-06
1.68349e-05
-1.7396e-06
1.84868e-05
-1.6519e-06
2.00137e-05
-1.52687e-06
2.13847e-05
-1.37096e-06
2.25764e-05
-1.19171e-06
2.35735e-05
-9.97078e-07
2.43684e-05
-7.94939e-07
2.4961e-05
-5.92561e-07
2.53573e-05
-3.96302e-07
2.55686e-05
-2.11379e-07
2.56103e-05
-4.16983e-08
2.55001e-05
1.10291e-07
2.52569e-05
2.43157e-07
2.49007e-05
3.56227e-07
2.44511e-05
4.49527e-07
2.39275e-05
5.23669e-07
2.33477e-05
5.79744e-07
2.27285e-05
6.192e-07
2.20848e-05
6.4373e-07
2.14296e-05
6.55166e-07
2.07742e-05
6.55389e-07
2.0128e-05
6.4625e-07
1.94985e-05
6.29518e-07
1.88916e-05
6.0683e-07
1.8312e-05
5.79667e-07
1.77626e-05
5.49336e-07
1.72457e-05
5.16964e-07
1.67622e-05
4.83503e-07
1.63124e-05
4.49738e-07
1.58961e-05
4.16299e-07
1.55125e-05
3.83677e-07
1.51602e-05
3.52245e-07
1.48379e-05
3.22269e-07
1.4544e-05
2.93929e-07
1.42767e-05
2.67333e-07
1.40342e-05
2.42531e-07
1.38146e-05
2.19527e-07
1.36163e-05
1.98291e-07
1.34376e-05
1.78766e-07
1.32767e-05
1.60876e-07
1.31322e-05
1.44532e-07
1.30025e-05
1.29639e-07
1.28864e-05
1.16095e-07
1.27826e-05
1.03801e-07
1.269e-05
9.26564e-08
1.26074e-05
8.25633e-08
1.2534e-05
7.34287e-08
1.24688e-05
6.51638e-08
1.24111e-05
5.76848e-08
1.23602e-05
5.09132e-08
1.23154e-05
4.47755e-08
1.22762e-05
3.92036e-08
1.22421e-05
3.41338e-08
1.22126e-05
2.95073e-08
1.21873e-05
2.52693e-08
1.2166e-05
2.1369e-08
1.21482e-05
1.77589e-08
1.21338e-05
1.43946e-08
1.21226e-05
1.12346e-08
1.21143e-05
8.2396e-09
1.2109e-05
5.3723e-09
1.21064e-05
2.59764e-09
1.21065e-05
-1.17067e-10
1.21093e-05
-2.80408e-09
1.21148e-05
-5.49683e-09
1.2123e-05
-8.22748e-09
1.2134e-05
-1.10298e-08
1.2148e-05
-1.39387e-08
1.2165e-05
-1.69911e-08
1.21852e-05
-2.02257e-08
1.22089e-05
-2.36841e-08
1.22363e-05
-2.74112e-08
1.22677e-05
-3.14558e-08
1.23036e-05
-3.58715e-08
1.23443e-05
-4.07178e-08
1.23904e-05
-4.6061e-08
1.24424e-05
-5.19755e-08
1.25009e-05
-5.85454e-08
1.25668e-05
-6.58664e-08
1.26408e-05
-7.40478e-08
1.2724e-05
-8.3215e-08
1.28176e-05
-9.35128e-08
1.29227e-05
-1.05109e-07
1.30409e-05
-1.18201e-07
1.31739e-05
-1.33016e-07
1.33237e-05
-1.49826e-07
1.34927e-05
-1.68951e-07
1.36834e-05
-1.9077e-07
1.38992e-05
-2.15741e-07
1.41436e-05
-2.44412e-07
1.4421e-05
-2.77447e-07
1.47367e-05
-3.15657e-07
1.50967e-05
-3.60038e-07
1.55085e-05
-4.11819e-07
1.59811e-05
-4.72529e-07
1.65252e-05
-5.44083e-07
1.7154e-05
-6.28895e-07
1.78841e-05
-7.30017e-07
1.87354e-05
-8.51323e-07
1.97331e-05
-9.97726e-07
2.09086e-05
-1.17544e-06
2.23008e-05
-1.39228e-06
2.39587e-05
-1.65788e-06
2.59435e-05
-1.98475e-06
2.83383e-05
-2.39482e-06
3.12832e-05
-2.94487e-06
3.50574e-05
-3.77427e-06
4.02089e-05
-5.15145e-06
4.81959e-05
-7.98702e-06
6.62897e-05
-1.80938e-05
0.000128643
-6.23535e-05
6.90839e-05
-0.000161344
1.4257e-05
-0.000213446
-4.32887e-05
-0.000218776
-0.000108273
-0.000169517
-4.3135e-05
-6.5138e-05
-2.41166e-05
-1.90183e-05
-1.60092e-05
-8.10749e-06
-1.10886e-05
-4.92058e-06
-7.69539e-06
-3.39319e-06
-5.19028e-06
-2.50511e-06
-3.26679e-06
-1.92349e-06
-1.78852e-06
-1.47828e-06
-6.88126e-07
-1.10039e-06
-6.88126e-07
1.52788e-07
-2.37743e-07
3.77585e-07
-3.87653e-07
7.14439e-07
-5.94284e-07
1.19271e-06
-8.55719e-07
1.83957e-06
-1.16716e-06
2.67776e-06
-1.51998e-06
3.72345e-06
-1.90233e-06
4.9845e-06
-2.29919e-06
6.45896e-06
-2.69262e-06
8.1341e-06
-3.06277e-06
9.98614e-06
-3.38927e-06
1.19809e-05
-3.65299e-06
1.40757e-05
-3.83779e-06
1.62214e-05
-3.93198e-06
1.83656e-05
-3.92942e-06
2.04558e-05
-3.82987e-06
2.24427e-05
-3.63874e-06
2.42821e-05
-3.36633e-06
2.59377e-05
-3.02658e-06
2.73818e-05
-2.63576e-06
2.85958e-05
-2.21109e-06
2.95704e-05
-1.76955e-06
3.03047e-05
-1.32687e-06
3.08052e-05
-8.96806e-07
3.10846e-05
-4.907e-07
3.116e-05
-1.17163e-07
3.10522e-05
2.181e-07
3.07835e-05
5.1185e-07
3.03773e-05
7.62491e-07
2.98568e-05
9.69962e-07
2.9245e-05
1.13551e-06
2.85633e-05
1.26141e-06
2.78317e-05
1.35078e-06
2.70682e-05
1.40723e-06
2.62887e-05
1.43473e-06
2.55067e-05
1.43736e-06
2.47338e-05
1.41917e-06
2.39793e-05
1.38402e-06
2.32506e-05
1.33551e-06
2.25534e-05
1.27691e-06
2.18916e-05
1.2111e-06
2.1268e-05
1.14059e-06
2.0684e-05
1.0675e-06
2.01402e-05
9.93569e-07
1.96362e-05
9.20217e-07
1.91714e-05
8.48548e-07
1.87442e-05
7.79403e-07
1.83531e-05
7.13387e-07
1.79961e-05
6.50915e-07
1.76712e-05
5.92239e-07
1.73762e-05
5.37481e-07
1.71091e-05
4.86661e-07
1.68677e-05
4.3972e-07
1.66499e-05
3.96537e-07
1.64538e-05
3.56952e-07
1.62776e-05
3.20774e-07
1.61194e-05
2.87795e-07
1.59777e-05
2.57794e-07
1.5851e-05
2.30552e-07
1.57378e-05
2.05849e-07
1.56369e-05
1.83471e-07
1.55471e-05
1.63213e-07
1.54674e-05
1.44879e-07
1.53968e-05
1.28285e-07
1.53344e-05
1.13256e-07
1.52796e-05
9.96316e-08
1.52315e-05
8.72602e-08
1.51897e-05
7.60016e-08
1.51534e-05
6.57255e-08
1.51224e-05
5.63108e-08
1.50961e-05
4.76451e-08
1.50743e-05
3.96233e-08
1.50565e-05
3.21473e-08
1.50426e-05
2.51249e-08
1.50324e-05
1.84693e-08
1.50257e-05
1.2098e-08
1.50223e-05
5.93314e-09
1.50223e-05
-9.93507e-11
1.50256e-05
-6.07065e-09
1.50321e-05
-1.20524e-08
1.5042e-05
-1.81177e-08
1.50553e-05
-2.43414e-08
1.50722e-05
-3.08011e-08
1.50928e-05
-3.75782e-08
1.51173e-05
-4.47587e-08
1.51461e-05
-5.24346e-08
1.51794e-05
-6.07051e-08
1.52176e-05
-6.96783e-08
1.52612e-05
-7.94729e-08
1.53107e-05
-9.02203e-08
1.53667e-05
-1.02067e-07
1.54299e-05
-1.15178e-07
1.55011e-05
-1.29738e-07
1.55812e-05
-1.45959e-07
1.56712e-05
-1.64083e-07
1.57724e-05
-1.84384e-07
1.58861e-05
-2.07184e-07
1.60138e-05
-2.32852e-07
1.61574e-05
-2.61818e-07
1.6319e-05
-2.9459e-07
1.65009e-05
-3.31759e-07
1.6706e-05
-3.74029e-07
1.69375e-05
-4.22236e-07
1.71991e-05
-4.77379e-07
1.74954e-05
-5.40661e-07
1.78314e-05
-6.13539e-07
1.82136e-05
-6.97788e-07
1.86491e-05
-7.95587e-07
1.91469e-05
-9.0963e-07
1.97177e-05
-1.04328e-06
2.03743e-05
-1.20074e-06
2.11328e-05
-1.38739e-06
2.20129e-05
-1.61006e-06
2.30392e-05
-1.87767e-06
2.42434e-05
-2.20193e-06
2.56666e-05
-2.59866e-06
2.73643e-05
-3.08993e-06
2.94146e-05
-3.70814e-06
3.19348e-05
-4.50496e-06
3.51124e-05
-5.57248e-06
3.92607e-05
-7.09318e-06
4.49282e-05
-9.44178e-06
5.31753e-05
-1.33985e-05
6.60397e-05
-2.08514e-05
8.49945e-05
-3.70487e-05
9.56905e-05
-7.30495e-05
6.3319e-05
-0.000128973
1.47193e-05
-0.000164846
-3.55659e-05
-0.000168491
-7.01008e-05
-0.000134982
-5.85647e-05
-7.66741e-05
-3.88412e-05
-3.87418e-05
-2.55526e-05
-2.13961e-05
-1.71786e-05
-1.32946e-05
-1.15942e-05
-8.97757e-06
-7.67216e-06
-6.42714e-06
-4.82236e-06
-4.77329e-06
-2.71422e-06
-3.58641e-06
-1.1642e-06
-2.65041e-06
-1.85233e-06
1.99473e-07
-4.37216e-07
4.79605e-07
-6.67786e-07
8.80598e-07
-9.95277e-07
1.43908e-06
-1.4142e-06
2.18757e-06
-1.91565e-06
3.15317e-06
-2.48558e-06
4.3554e-06
-3.10456e-06
5.80404e-06
-3.74784e-06
7.4974e-06
-4.38598e-06
9.42111e-06
-4.98649e-06
1.1548e-05
-5.51611e-06
1.38387e-05
-5.94369e-06
1.62439e-05
-6.24303e-06
1.87072e-05
-6.39532e-06
2.11686e-05
-6.39082e-06
2.35682e-05
-6.22939e-06
2.58495e-05
-5.92007e-06
2.79628e-05
-5.47964e-06
2.98669e-05
-4.93072e-06
3.15307e-05
-4.29955e-06
3.29334e-05
-3.6138e-06
3.40646e-05
-2.90067e-06
3.4923e-05
-2.1853e-06
3.55159e-05
-1.4897e-06
3.58572e-05
-8.32007e-07
3.59661e-05
-2.26107e-07
3.58657e-05
3.1854e-07
3.55811e-05
7.96459e-07
3.51386e-05
1.20501e-06
3.45645e-05
1.544e-06
3.38847e-05
1.81532e-06
3.31236e-05
2.02256e-06
3.23037e-05
2.1706e-06
3.14457e-05
2.26524e-06
3.05676e-05
2.31282e-06
2.96851e-05
2.31987e-06
2.88114e-05
2.2929e-06
2.79572e-05
2.23816e-06
2.71313e-05
2.16147e-06
2.63401e-05
2.06812e-06
2.55884e-05
1.96281e-06
2.48793e-05
1.84962e-06
2.42148e-05
1.732e-06
2.35956e-05
1.61282e-06
2.30214e-05
1.4944e-06
2.24914e-05
1.37856e-06
2.20041e-05
1.26668e-06
2.15577e-05
1.15978e-06
2.11501e-05
1.05855e-06
2.07789e-05
9.63412e-07
2.04418e-05
8.74577e-07
2.01364e-05
7.92092e-07
1.98603e-05
7.1587e-07
1.96111e-05
6.45726e-07
1.93866e-05
5.81404e-07
1.91848e-05
5.22601e-07
1.90036e-05
4.68981e-07
1.88412e-05
4.20192e-07
1.86959e-05
3.75878e-07
1.8566e-05
3.35685e-07
1.84502e-05
2.99266e-07
1.83472e-05
2.66291e-07
1.82556e-05
2.36441e-07
1.81745e-05
2.09417e-07
1.81028e-05
1.84939e-07
1.80397e-05
1.62744e-07
1.79844e-05
1.42586e-07
1.79361e-05
1.24238e-07
1.78944e-05
1.07488e-07
1.78585e-05
9.2141e-08
1.78282e-05
7.80127e-08
1.78028e-05
6.49332e-08
1.77822e-05
5.27432e-08
1.77661e-05
4.12931e-08
1.77541e-05
3.04417e-08
1.77462e-05
2.00552e-08
1.77421e-05
1.00064e-08
1.77418e-05
1.73911e-10
1.77453e-05
-9.55771e-09
1.77525e-05
-1.9304e-08
1.77636e-05
-2.91842e-08
1.77786e-05
-3.93201e-08
1.77976e-05
-4.98378e-08
1.78209e-05
-6.08691e-08
1.78487e-05
-7.25536e-08
1.78813e-05
-8.50404e-08
1.79191e-05
-9.849e-08
1.79625e-05
-1.13077e-07
1.8012e-05
-1.28995e-07
1.80683e-05
-1.46454e-07
1.81319e-05
-1.65692e-07
1.82037e-05
-1.86974e-07
1.82845e-05
-2.106e-07
1.83755e-05
-2.36909e-07
1.84777e-05
-2.6629e-07
1.85925e-05
-2.99186e-07
1.87214e-05
-3.3611e-07
1.88662e-05
-3.77656e-07
1.90289e-05
-4.24512e-07
1.92118e-05
-4.77486e-07
1.94176e-05
-5.37526e-07
1.96493e-05
-6.0575e-07
1.99106e-05
-6.83487e-07
2.02055e-05
-7.72323e-07
2.0539e-05
-8.74164e-07
2.09168e-05
-9.91314e-07
2.13456e-05
-1.12657e-06
2.18334e-05
-1.28338e-06
2.23897e-05
-1.46599e-06
2.30261e-05
-1.67968e-06
2.37565e-05
-1.93113e-06
2.45979e-05
-2.22882e-06
2.55716e-05
-2.5837e-06
2.67041e-05
-3.01017e-06
2.80297e-05
-3.52751e-06
2.95933e-05
-4.16234e-06
3.14562e-05
-4.95276e-06
3.37039e-05
-5.95582e-06
3.64606e-05
-7.26171e-06
3.99095e-05
-9.02142e-06
4.43163e-05
-1.14999e-05
5.00465e-05
-1.51719e-05
5.75396e-05
-2.08916e-05
6.69288e-05
-3.02406e-05
7.59791e-05
-4.60989e-05
7.50485e-05
-7.21189e-05
5.20306e-05
-0.000105955
1.58558e-05
-0.000128672
-2.14413e-05
-0.000131194
-4.59703e-05
-0.000110453
-4.69915e-05
-7.56529e-05
-3.74754e-05
-4.82578e-05
-2.75835e-05
-3.12881e-05
-1.97265e-05
-2.11515e-05
-1.38037e-05
-1.49004e-05
-9.36205e-06
-1.08688e-05
-6.01135e-06
-8.12399e-06
-3.46327e-06
-6.13449e-06
-1.51272e-06
-4.60096e-06
-3.36505e-06
2.27033e-07
-6.64249e-07
5.39163e-07
-9.79915e-07
9.80286e-07
-1.4364e-06
1.59268e-06
-2.02659e-06
2.41455e-06
-2.73753e-06
3.47815e-06
-3.54918e-06
4.80719e-06
-4.4336e-06
6.41425e-06
-5.35489e-06
8.29854e-06
-6.27027e-06
1.04445e-05
-7.13245e-06
1.28215e-05
-7.89306e-06
1.53846e-05
-8.50686e-06
1.80776e-05
-8.93597e-06
2.08357e-05
-9.15349e-06
2.35907e-05
-9.1458e-06
2.62747e-05
-8.91334e-06
2.88243e-05
-8.4697e-06
3.11842e-05
-7.83952e-06
3.3309e-05
-7.05558e-06
3.5165e-05
-6.15554e-06
3.67301e-05
-5.17885e-06
3.79934e-05
-4.16402e-06
3.89547e-05
-3.14655e-06
3.96223e-05
-2.15735e-06
4.00122e-05
-1.22183e-06
4.01456e-05
-3.59503e-07
4.00479e-05
4.16182e-07
3.97471e-05
1.09732e-06
3.92719e-05
1.68016e-06
3.86515e-05
2.1644e-06
3.79142e-05
2.55266e-06
3.70868e-05
2.84998e-06
3.61942e-05
3.06322e-06
3.52589e-05
3.20053e-06
3.43008e-05
3.27085e-06
3.33373e-05
3.28343e-06
3.23827e-05
3.24746e-06
3.14491e-05
3.17179e-06
3.05459e-05
3.06468e-06
2.96803e-05
2.93365e-06
2.88577e-05
2.78539e-06
2.80817e-05
2.62571e-06
2.73541e-05
2.45953e-06
2.6676e-05
2.29095e-06
2.60471e-05
2.1233e-06
2.54665e-05
1.95918e-06
2.49325e-05
1.80059e-06
2.44434e-05
1.64898e-06
2.39966e-05
1.50534e-06
2.35897e-05
1.37029e-06
2.32201e-05
1.24416e-06
2.28852e-05
1.12702e-06
2.25823e-05
1.01874e-06
2.23089e-05
9.19084e-07
2.20627e-05
8.27679e-07
2.18412e-05
7.44101e-07
2.16423e-05
6.67878e-07
2.1464e-05
5.98513e-07
2.13043e-05
5.35501e-07
2.11617e-05
4.7834e-07
2.10344e-05
4.2654e-07
2.09211e-05
3.7963e-07
2.08203e-05
3.37161e-07
2.07311e-05
2.98707e-07
2.06521e-05
2.6387e-07
2.05826e-05
2.32277e-07
2.05216e-05
2.0358e-07
2.04684e-05
1.77457e-07
2.04223e-05
1.53606e-07
2.03826e-05
1.3175e-07
2.0349e-05
1.11629e-07
2.0321e-05
9.30006e-08
2.02981e-05
7.56395e-08
2.028e-05
5.93333e-08
2.02666e-05
4.38818e-08
2.02575e-05
2.9095e-08
2.02528e-05
1.47921e-08
2.02521e-05
7.9982e-10
2.02556e-05
-1.3046e-08
2.02632e-05
-2.69093e-08
2.0275e-05
-4.09589e-08
2.02911e-05
-5.53674e-08
2.03115e-05
-7.03134e-08
2.03366e-05
-8.59837e-08
2.03667e-05
-1.02575e-07
2.04019e-05
-1.20298e-07
2.04428e-05
-1.3938e-07
2.04898e-05
-1.60067e-07
2.05434e-05
-1.82628e-07
2.06043e-05
-2.07364e-07
2.06733e-05
-2.34605e-07
2.0751e-05
-2.64725e-07
2.08385e-05
-2.98143e-07
2.0937e-05
-3.35334e-07
2.10475e-05
-3.7684e-07
2.11716e-05
-4.23282e-07
2.13109e-05
-4.75371e-07
2.14672e-05
-5.33932e-07
2.16426e-05
-5.99922e-07
2.18395e-05
-6.74456e-07
2.20609e-05
-7.58842e-07
2.23097e-05
-8.5462e-07
2.25898e-05
-9.63615e-07
2.29055e-05
-1.088e-06
2.32617e-05
-1.23037e-06
2.36643e-05
-1.39387e-06
2.412e-05
-1.5823e-06
2.46369e-05
-1.80031e-06
2.52246e-05
-2.05364e-06
2.58943e-05
-2.34941e-06
2.66598e-05
-2.69658e-06
2.75375e-05
-3.10655e-06
2.85478e-05
-3.59403e-06
2.9716e-05
-4.17831e-06
3.10737e-05
-4.88525e-06
3.26618e-05
-5.75039e-06
3.4533e-05
-6.82402e-06
3.67568e-05
-8.17959e-06
3.94231e-05
-9.92804e-06
4.26436e-05
-1.22419e-05
4.6538e-05
-1.53944e-05
5.11844e-05
-1.98182e-05
5.64745e-05
-2.61818e-05
6.17064e-05
-3.54725e-05
6.45838e-05
-4.89764e-05
6.0007e-05
-6.75421e-05
4.26481e-05
-8.8596e-05
1.67995e-05
-0.000102823
-9.83762e-06
-0.000104557
-2.83397e-05
-9.19512e-05
-3.32829e-05
-7.07097e-05
-3.0231e-05
-5.13096e-05
-2.46103e-05
-3.69088e-05
-1.89128e-05
-2.68491e-05
-1.39337e-05
-1.98795e-05
-9.81718e-06
-1.49852e-05
-6.49139e-06
-1.14498e-05
-3.82892e-06
-8.79696e-06
-1.70253e-06
-6.72735e-06
-5.06757e-06
2.30802e-07
-8.95051e-07
5.47758e-07
-1.29687e-06
1.00022e-06
-1.88886e-06
1.63678e-06
-2.66314e-06
2.5022e-06
-3.60295e-06
3.63499e-06
-4.68196e-06
5.06417e-06
-5.86279e-06
6.8061e-06
-7.09682e-06
8.8616e-06
-8.32578e-06
1.12141e-05
-9.48495e-06
1.38291e-05
-1.0508e-05
1.66553e-05
-1.13331e-05
1.96279e-05
-1.19085e-05
2.26726e-05
-1.21982e-05
2.57113e-05
-1.21845e-05
2.86672e-05
-1.18692e-05
3.14693e-05
-1.12718e-05
3.40565e-05
-1.04268e-05
3.63799e-05
-9.379e-06
3.84038e-05
-8.17937e-06
4.01056e-05
-6.88069e-06
4.14756e-05
-5.53405e-06
4.25152e-05
-4.18613e-06
4.32352e-05
-2.87733e-06
4.3654e-05
-1.64067e-06
4.37959e-05
-5.01341e-07
4.36888e-05
5.23213e-07
4.33634e-05
1.4227e-06
4.28513e-05
2.19234e-06
4.21838e-05
2.83185e-06
4.13917e-05
3.34477e-06
4.05039e-05
3.7378e-06
3.95471e-05
4.02002e-06
3.85454e-05
4.20218e-06
3.75202e-05
4.29605e-06
3.64899e-05
4.3138e-06
3.54698e-05
4.26754e-06
3.44727e-05
4.16892e-06
3.35085e-05
4.0288e-06
3.25851e-05
3.8571e-06
3.17079e-05
3.66261e-06
3.08806e-05
3.453e-06
3.01053e-05
3.23475e-06
2.9383e-05
3.01329e-06
2.87133e-05
2.79298e-06
2.80952e-05
2.57727e-06
2.7527e-05
2.3688e-06
2.70065e-05
2.16947e-06
2.65313e-05
1.98061e-06
2.60985e-05
1.80305e-06
2.57055e-05
1.6372e-06
2.53493e-05
1.48316e-06
2.50273e-05
1.34078e-06
2.47366e-05
1.20973e-06
2.44748e-05
1.08953e-06
2.42393e-05
9.7962e-07
2.40278e-05
8.79382e-07
2.38381e-05
7.8816e-07
2.36683e-05
7.05289e-07
2.35166e-05
6.3011e-07
2.33811e-05
5.61979e-07
2.32605e-05
5.00275e-07
2.31532e-05
4.44409e-07
2.30581e-05
3.93821e-07
2.2974e-05
3.47987e-07
2.28999e-05
3.06418e-07
2.28348e-05
2.68657e-07
2.2778e-05
2.34279e-07
2.27287e-05
2.02891e-07
2.26863e-05
1.74125e-07
2.26503e-05
1.47643e-07
2.26202e-05
1.23126e-07
2.25955e-05
1.00279e-07
2.2576e-05
7.88233e-08
2.25614e-05
5.84959e-08
2.25515e-05
3.9048e-08
2.2546e-05
2.0242e-08
2.2545e-05
1.85061e-09
2.25483e-05
-1.63431e-08
2.25559e-05
-3.45542e-08
2.25679e-05
-5.30034e-08
2.25845e-05
-7.19164e-08
2.26057e-05
-9.15266e-08
2.26318e-05
-1.12078e-07
2.26631e-05
-1.33826e-07
2.26998e-05
-1.57047e-07
2.27425e-05
-1.82034e-07
2.27915e-05
-2.09108e-07
2.28475e-05
-2.38618e-07
2.29111e-05
-2.70953e-07
2.2983e-05
-3.06541e-07
2.30642e-05
-3.45864e-07
2.31555e-05
-3.89463e-07
2.32581e-05
-4.37949e-07
2.33733e-05
-4.92017e-07
2.35024e-05
-5.52463e-07
2.36473e-05
-6.20198e-07
2.38096e-05
-6.96272e-07
2.39916e-05
-7.81902e-07
2.41956e-05
-8.78503e-07
2.44245e-05
-9.87729e-07
2.46814e-05
-1.11152e-06
2.497e-05
-1.25217e-06
2.52944e-05
-1.41239e-06
2.56594e-05
-1.59543e-06
2.60707e-05
-1.80518e-06
2.65348e-05
-2.04633e-06
2.70591e-05
-2.32462e-06
2.76525e-05
-2.64704e-06
2.83254e-05
-3.02229e-06
2.909e-05
-3.4612e-06
2.99609e-05
-3.97748e-06
3.09556e-05
-4.58868e-06
3.20949e-05
-5.31761e-06
3.34041e-05
-6.19445e-06
3.49135e-05
-7.25987e-06
3.66594e-05
-8.56985e-06
3.86827e-05
-1.02029e-05
4.1026e-05
-1.22713e-05
4.3721e-05
-1.49368e-05
4.67589e-05
-1.84323e-05
5.00254e-05
-2.30847e-05
5.31716e-05
-2.9328e-05
5.53729e-05
-3.76738e-05
5.49542e-05
-4.85576e-05
4.9217e-05
-6.18049e-05
3.595e-05
-7.5329e-05
1.74875e-05
-8.43605e-05
-1.53086e-06
-8.55386e-05
-1.56102e-05
-7.78719e-05
-2.17569e-05
-6.4563e-05
-2.21765e-05
-5.08901e-05
-1.97241e-05
-3.93612e-05
-1.62176e-05
-3.03555e-05
-1.25809e-05
-2.35162e-05
-9.22193e-06
-1.83442e-05
-6.28487e-06
-1.43868e-05
-3.79109e-06
-1.12907e-05
-1.71085e-06
-8.80759e-06
-6.77843e-06
2.07466e-07
-1.10252e-06
4.99063e-07
-1.58847e-06
9.31109e-07
-2.32091e-06
1.55998e-06
-3.29201e-06
2.43846e-06
-4.48143e-06
3.61272e-06
-5.85623e-06
5.11853e-06
-7.36859e-06
6.97714e-06
-8.95543e-06
9.19169e-06
-1.05403e-05
1.17446e-05
-1.20378e-05
1.45966e-05
-1.33601e-05
1.76887e-05
-1.44252e-05
2.09453e-05
-1.51652e-05
2.42804e-05
-1.55333e-05
2.7604e-05
-1.55081e-05
3.08287e-05
-1.50938e-05
3.3875e-05
-1.43181e-05
3.6676e-05
-1.32278e-05
3.91792e-05
-1.18823e-05
4.13481e-05
-1.03482e-05
4.31609e-05
-8.69354e-06
4.46102e-05
-6.98335e-06
4.57005e-05
-5.27639e-06
4.64461e-05
-3.62299e-06
4.68694e-05
-2.06389e-06
4.69979e-05
-6.29869e-07
4.68631e-05
6.57988e-07
4.64986e-05
1.78726e-06
4.59385e-05
2.75237e-06
4.5217e-05
3.55333e-06
4.43669e-05
4.19495e-06
4.34188e-05
4.68589e-06
4.2401e-05
5.03777e-06
4.1339e-05
5.26423e-06
4.02549e-05
5.38013e-06
3.91679e-05
5.40082e-06
3.80939e-05
5.34152e-06
3.7046e-05
5.21683e-06
3.60344e-05
5.0404e-06
3.50669e-05
4.82461e-06
3.4149e-05
4.58049e-06
3.32844e-05
4.31759e-06
3.24751e-05
4.04406e-06
3.17218e-05
3.76664e-06
3.1024e-05
3.49079e-06
3.03804e-05
3.2208e-06
2.97893e-05
2.95995e-06
2.92481e-05
2.71062e-06
2.87543e-05
2.47446e-06
2.83048e-05
2.25248e-06
2.78969e-05
2.04519e-06
2.75273e-05
1.8527e-06
2.71933e-05
1.67482e-06
2.68919e-05
1.51112e-06
2.66204e-05
1.361e-06
2.63763e-05
1.22375e-06
2.61571e-05
1.0986e-06
2.59605e-05
9.84711e-07
2.57845e-05
8.81259e-07
2.56272e-05
7.87415e-07
2.54868e-05
7.02373e-07
2.53618e-05
6.25356e-07
2.52505e-05
5.55625e-07
2.51519e-05
4.92484e-07
2.50646e-05
4.35276e-07
2.49876e-05
3.8339e-07
2.492e-05
3.36256e-07
2.4861e-05
2.93345e-07
2.48097e-05
2.54165e-07
2.47655e-05
2.1826e-07
2.4728e-05
1.85206e-07
2.46965e-05
1.54608e-07
2.46707e-05
1.26098e-07
2.46502e-05
9.93294e-08
2.46347e-05
7.39752e-08
2.4624e-05
4.9726e-08
2.4618e-05
2.62862e-08
2.46165e-05
3.37259e-09
2.46194e-05
-1.92862e-08
2.46268e-05
-4.19581e-08
2.46387e-05
-6.49166e-08
2.46552e-05
-8.84415e-08
2.46765e-05
-1.12821e-07
2.47028e-05
-1.38357e-07
2.47344e-05
-1.65367e-07
2.47715e-05
-1.94187e-07
2.48146e-05
-2.2518e-07
2.48643e-05
-2.5874e-07
2.49209e-05
-2.95297e-07
2.49853e-05
-3.35324e-07
2.50581e-05
-3.79348e-07
2.51402e-05
-4.27955e-07
2.52326e-05
-4.81803e-07
2.53362e-05
-5.41636e-07
2.54525e-05
-6.08297e-07
2.55828e-05
-6.82747e-07
2.57287e-05
-7.66085e-07
2.5892e-05
-8.59573e-07
2.60748e-05
-9.6467e-07
2.62793e-05
-1.08307e-06
2.65083e-05
-1.21673e-06
2.67648e-05
-1.36795e-06
2.7052e-05
-1.53945e-06
2.7374e-05
-1.7344e-06
2.77352e-05
-1.95661e-06
2.81406e-05
-2.21058e-06
2.85961e-05
-2.50176e-06
2.91081e-05
-2.8367e-06
2.96845e-05
-3.22339e-06
3.03339e-05
-3.67165e-06
3.10663e-05
-4.19363e-06
3.18933e-05
-4.80449e-06
3.2828e-05
-5.52344e-06
3.38854e-05
-6.37501e-06
3.5082e-05
-7.39101e-06
3.64352e-05
-8.61312e-06
3.79621e-05
-1.00967e-05
3.96752e-05
-1.1916e-05
4.15746e-05
-1.41707e-05
4.36319e-05
-1.69942e-05
4.57602e-05
-2.05605e-05
4.77615e-05
-2.50861e-05
4.92449e-05
-3.08114e-05
4.9514e-05
-3.79429e-05
4.7464e-05
-4.65077e-05
4.16944e-05
-5.60353e-05
3.13975e-05
-6.5032e-05
1.79531e-05
-7.09161e-05
4.16043e-06
-7.17459e-05
-6.68067e-06
-6.70308e-05
-1.28252e-05
-5.84185e-05
-1.4961e-05
-4.87542e-05
-1.45448e-05
-3.97775e-05
-1.27712e-05
-3.21291e-05
-1.04181e-05
-2.58694e-05
-7.93772e-06
-2.08246e-05
-5.5699e-06
-1.67547e-05
-3.42971e-06
-1.34309e-05
-1.56582e-06
-1.06715e-05
-8.34424e-06
1.55572e-07
-1.25809e-06
3.8977e-07
-1.82267e-06
7.68088e-07
-2.69923e-06
1.35657e-06
-3.88049e-06
2.21782e-06
-5.34268e-06
3.40743e-06
-7.04584e-06
4.96948e-06
-8.93064e-06
6.93148e-06
-1.09174e-05
9.29959e-06
-1.29084e-05
1.2055e-05
-1.47932e-05
1.51527e-05
-1.64579e-05
1.85235e-05
-1.77959e-05
2.20786e-05
-1.87202e-05
2.57171e-05
-1.91719e-05
2.93346e-05
-1.91256e-05
3.28311e-05
-1.85903e-05
3.61178e-05
-1.76048e-05
3.91214e-05
-1.62314e-05
4.17868e-05
-1.45477e-05
4.40775e-05
-1.26388e-05
4.5974e-05
-1.05901e-05
4.74728e-05
-8.4821e-06
4.85829e-05
-6.38653e-06
4.93239e-05
-4.36398e-06
4.97228e-05
-2.46282e-06
4.9812e-05
-7.1901e-07
4.96266e-05
8.4334e-07
4.92037e-05
2.21015e-06
4.85806e-05
3.37547e-06
4.77939e-05
4.34009e-06
4.68783e-05
5.11053e-06
4.58663e-05
5.69789e-06
4.47873e-05
6.11673e-06
4.36676e-05
6.38393e-06
4.253e-05
6.51778e-06
4.13938e-05
6.53702e-06
4.02751e-05
6.46019e-06
3.91869e-05
6.30502e-06
3.81393e-05
6.088e-06
3.71398e-05
5.8241e-06
3.61937e-05
5.5266e-06
3.53043e-05
5.20702e-06
3.44732e-05
4.8751e-06
3.37009e-05
4.53894e-06
3.29867e-05
4.20507e-06
3.23288e-05
3.87862e-06
3.17253e-05
3.56349e-06
3.11734e-05
3.2625e-06
3.06703e-05
2.97759e-06
3.02128e-05
2.70993e-06
2.97979e-05
2.46013e-06
2.94223e-05
2.22826e-06
2.90831e-05
2.01409e-06
2.87771e-05
1.81706e-06
2.85017e-05
1.63644e-06
2.82541e-05
1.47136e-06
2.80318e-05
1.32086e-06
2.78326e-05
1.18394e-06
2.76543e-05
1.0596e-06
2.74949e-05
9.46822e-07
2.73526e-05
8.44639e-07
2.72258e-05
7.5211e-07
2.71131e-05
6.68344e-07
2.70131e-05
5.92499e-07
2.69246e-05
5.23786e-07
2.68465e-05
4.61469e-07
2.67779e-05
4.04862e-07
2.67179e-05
3.53329e-07
2.66658e-05
3.0628e-07
2.66209e-05
2.63167e-07
2.65826e-05
2.23482e-07
2.65505e-05
1.86752e-07
2.65241e-05
1.52534e-07
2.6503e-05
1.20414e-07
2.64869e-05
9.00015e-08
2.64757e-05
6.0926e-08
2.64692e-05
3.28338e-08
2.64672e-05
5.38561e-09
2.64696e-05
-2.17448e-08
2.64766e-05
-4.88787e-08
2.6488e-05
-7.63422e-08
2.6504e-05
-1.04468e-07
2.65248e-05
-1.336e-07
2.65505e-05
-1.64095e-07
2.65815e-05
-1.9633e-07
2.6618e-05
-2.30702e-07
2.66605e-05
-2.67641e-07
2.67093e-05
-3.07611e-07
2.67652e-05
-3.51119e-07
2.68286e-05
-3.9872e-07
2.69002e-05
-4.51031e-07
2.6981e-05
-5.08739e-07
2.70718e-05
-5.72612e-07
2.71737e-05
-6.43517e-07
2.72879e-05
-7.22432e-07
2.74156e-05
-8.10469e-07
2.75584e-05
-9.08897e-07
2.7718e-05
-1.01917e-06
2.78963e-05
-1.14295e-06
2.80954e-05
-1.28218e-06
2.83177e-05
-1.43909e-06
2.85661e-05
-1.61627e-06
2.88434e-05
-1.81678e-06
2.91532e-05
-2.04417e-06
2.94992e-05
-2.30268e-06
2.98859e-05
-2.59728e-06
3.03181e-05
-2.93394e-06
3.08012e-05
-3.3198e-06
3.13413e-05
-3.76346e-06
3.1945e-05
-4.27539e-06
3.26198e-05
-4.86838e-06
3.33735e-05
-5.5582e-06
3.42145e-05
-6.36445e-06
3.51511e-05
-7.31165e-06
3.61909e-05
-8.43079e-06
3.7339e-05
-9.76119e-06
3.85953e-05
-1.1353e-05
3.99494e-05
-1.32701e-05
4.13719e-05
-1.55932e-05
4.27993e-05
-1.84216e-05
4.41111e-05
-2.18724e-05
4.50957e-05
-2.60707e-05
4.54082e-05
-3.11238e-05
4.45314e-05
-3.70661e-05
4.17795e-05
-4.37558e-05
3.64516e-05
-5.07074e-05
2.83189e-05
-5.68993e-05
1.82685e-05
-6.08657e-05
8.01205e-06
-6.14894e-05
-5.05588e-07
-5.85132e-05
-6.13486e-06
-5.27892e-05
-8.99506e-06
-4.5894e-05
-9.79009e-06
-3.89825e-05
-9.2537e-06
-3.26655e-05
-7.96113e-06
-2.71619e-05
-6.31085e-06
-2.24749e-05
-4.55883e-06
-1.85067e-05
-2.8626e-06
-1.51272e-05
-1.31966e-06
-1.22144e-05
-9.6639e-06
7.47485e-08
-1.33284e-06
2.18773e-07
-1.96669e-06
5.09746e-07
-2.9902e-06
1.02528e-06
-4.39603e-06
1.83991e-06
-6.15731e-06
3.02053e-06
-8.22646e-06
4.62141e-06
-1.05315e-05
6.6778e-06
-1.29738e-05
9.19966e-06
-1.54303e-05
1.21667e-05
-1.77603e-05
1.55265e-05
-1.98177e-05
1.9197e-05
-2.14664e-05
2.30725e-05
-2.25958e-05
2.70339e-05
-2.31333e-05
3.09593e-05
-2.30509e-05
3.47338e-05
-2.23649e-05
3.82582e-05
-2.11292e-05
4.14532e-05
-1.94263e-05
4.42617e-05
-1.73562e-05
4.66486e-05
-1.50257e-05
4.85988e-05
-1.25403e-05
5.01141e-05
-9.99741e-06
5.12101e-05
-7.48261e-06
5.1913e-05
-5.06684e-06
5.22559e-05
-2.80573e-06
5.22766e-05
-7.39745e-07
5.20151e-05
1.10491e-06
5.15121e-05
2.71315e-06
5.08083e-05
4.07928e-06
4.99428e-05
5.20556e-06
4.89525e-05
6.10084e-06
4.78711e-05
6.77925e-06
4.67291e-05
7.25879e-06
4.5553e-05
7.56004e-06
4.43657e-05
7.70502e-06
4.31866e-05
7.71616e-06
4.20313e-05
7.6155e-06
4.09123e-05
7.42401e-06
3.98392e-05
7.16112e-06
3.88188e-05
6.84442e-06
3.7856e-05
6.48944e-06
3.69534e-05
6.10961e-06
3.61122e-05
5.71629e-06
3.53323e-05
5.31886e-06
3.46125e-05
4.92488e-06
3.39509e-05
4.54025e-06
3.33449e-05
4.16945e-06
3.27917e-05
3.81571e-06
3.22881e-05
3.48119e-06
3.18308e-05
3.16722e-06
3.14165e-05
2.87442e-06
3.10419e-05
2.60285e-06
3.07039e-05
2.35215e-06
3.03993e-05
2.12166e-06
3.01252e-05
1.91047e-06
2.98791e-05
1.71754e-06
2.96582e-05
1.54173e-06
2.94603e-05
1.38184e-06
2.92832e-05
1.23668e-06
2.9125e-05
1.10506e-06
2.89838e-05
9.85839e-07
2.8858e-05
8.77903e-07
2.87461e-05
7.80208e-07
2.86468e-05
6.91765e-07
2.8559e-05
6.11651e-07
2.84814e-05
5.39002e-07
2.84133e-05
4.73019e-07
2.83537e-05
4.12957e-07
2.83018e-05
3.58128e-07
2.82571e-05
3.07892e-07
2.82189e-05
2.61659e-07
2.81868e-05
2.18877e-07
2.81603e-05
1.79031e-07
2.81391e-05
1.4164e-07
2.81228e-05
1.06251e-07
2.81113e-05
7.24323e-08
2.81044e-05
3.97743e-08
2.81019e-05
7.88271e-09
2.81037e-05
-2.36228e-08
2.811e-05
-5.5116e-08
2.81206e-05
-8.69741e-08
2.81357e-05
-1.19582e-07
2.81555e-05
-1.53334e-07
2.818e-05
-1.88643e-07
2.82096e-05
-2.25939e-07
2.82446e-05
-2.65681e-07
2.82853e-05
-3.08359e-07
2.83322e-05
-3.54502e-07
2.83858e-05
-4.04689e-07
2.84466e-05
-4.59552e-07
2.85154e-05
-5.19792e-07
2.85928e-05
-5.86184e-07
2.86798e-05
-6.59598e-07
2.87773e-05
-7.41008e-07
2.88864e-05
-8.31513e-07
2.90083e-05
-9.32357e-07
2.91443e-05
-1.04496e-06
2.92961e-05
-1.17092e-06
2.94652e-05
-1.3121e-06
2.96537e-05
-1.47062e-06
2.98635e-05
-1.64892e-06
3.00971e-05
-1.84985e-06
3.0357e-05
-2.0767e-06
3.06461e-05
-2.3333e-06
3.09676e-05
-2.62418e-06
3.1325e-05
-2.95461e-06
3.17219e-05
-3.33087e-06
3.21625e-05
-3.76039e-06
3.26511e-05
-4.25204e-06
3.31921e-05
-4.81645e-06
3.37902e-05
-5.46645e-06
3.44496e-05
-6.21758e-06
3.51739e-05
-7.08874e-06
3.59653e-05
-8.10307e-06
3.68234e-05
-9.2889e-06
3.77432e-05
-1.0681e-05
3.87117e-05
-1.23216e-05
3.97034e-05
-1.42619e-05
4.06721e-05
-1.65619e-05
4.15399e-05
-1.92894e-05
4.21819e-05
-2.25143e-05
4.24077e-05
-2.62965e-05
4.19448e-05
-3.0661e-05
4.04354e-05
-3.55567e-05
3.74721e-05
-4.07925e-05
3.27212e-05
-4.59565e-05
2.61808e-05
-5.0359e-05
1.84504e-05
-5.31353e-05
1.05938e-05
-5.36328e-05
3.78422e-06
-5.17036e-05
-1.19355e-06
-4.78115e-05
-4.26168e-06
-4.28258e-05
-5.72946e-06
-3.75147e-05
-6.02483e-06
-3.23701e-05
-5.54436e-06
-2.76424e-05
-4.60357e-06
-2.34157e-05
-3.43433e-06
-1.96759e-05
-2.20148e-06
-1.636e-05
-1.02448e-06
-1.33914e-05
-1.06884e-05
-3.52393e-08
-1.2976e-06
-1.33667e-08
-1.98856e-06
1.5679e-07
-3.16036e-06
5.67688e-07
-4.80693e-06
1.30766e-06
-6.89728e-06
2.45681e-06
-9.37561e-06
4.08165e-06
-1.21564e-05
6.22696e-06
-1.51191e-05
8.9074e-06
-1.81107e-05
1.21008e-05
-2.09537e-05
1.57454e-05
-2.34623e-05
1.97427e-05
-2.54637e-05
2.39662e-05
-2.68193e-05
2.8274e-05
-2.74411e-05
3.25232e-05
-2.73001e-05
3.65822e-05
-2.64239e-05
4.03402e-05
-2.48872e-05
4.37125e-05
-2.27986e-05
4.66413e-05
-2.02851e-05
4.90951e-05
-1.74795e-05
5.10648e-05
-1.451e-05
5.25601e-05
-1.14928e-05
5.36051e-05
-8.52755e-06
5.42338e-05
-5.69551e-06
5.44869e-05
-3.05883e-06
5.44086e-05
-6.61459e-07
5.4044e-05
1.46952e-06
5.34383e-05
3.31883e-06
5.26356e-05
4.88193e-06
5.16778e-05
6.16337e-06
5.06035e-05
7.17519e-06
4.94475e-05
7.93524e-06
4.82407e-05
8.4656e-06
4.70097e-05
8.79101e-06
4.57771e-05
8.93762e-06
4.45615e-05
8.9318e-06
4.33777e-05
8.79925e-06
4.22374e-05
8.56429e-06
4.11493e-05
8.24932e-06
4.01192e-05
7.87452e-06
3.9151e-05
7.45763e-06
3.82466e-05
7.01395e-06
3.74066e-05
6.55634e-06
3.663e-05
6.09539e-06
3.59153e-05
5.63959e-06
3.526e-05
5.19556e-06
3.46612e-05
4.76826e-06
3.41157e-05
4.36124e-06
3.362e-05
3.97687e-06
3.31707e-05
3.61654e-06
3.27642e-05
3.28085e-06
3.23973e-05
2.96981e-06
3.20665e-05
2.68291e-06
3.17689e-05
2.41933e-06
3.15013e-05
2.178e-06
3.12612e-05
1.95767e-06
3.10459e-05
1.757e-06
3.08532e-05
1.5746e-06
3.06808e-05
1.40907e-06
3.05268e-05
1.25904e-06
3.03894e-05
1.12319e-06
3.02671e-05
1.00024e-06
3.01583e-05
8.88983e-07
3.00618e-05
7.88289e-07
2.99764e-05
6.97097e-07
2.99009e-05
6.14419e-07
2.98346e-05
5.3934e-07
2.97766e-05
4.71012e-07
2.9726e-05
4.08647e-07
2.96824e-05
3.5152e-07
2.96451e-05
2.98955e-07
2.96137e-05
2.50326e-07
2.95877e-05
2.05049e-07
2.95667e-05
1.62578e-07
2.95506e-05
1.22397e-07
2.9539e-05
8.40189e-08
2.95318e-05
4.69791e-08
2.95288e-05
1.08303e-08
2.95301e-05
-2.48594e-08
2.95355e-05
-6.05142e-08
2.9545e-05
-9.65601e-08
2.95589e-05
-1.3343e-07
2.95771e-05
-1.71569e-07
2.95999e-05
-2.11437e-07