/*--------------------------------*- C++ -*----------------------------------*\
  =========                 |
  \\      /  F ield         | OpenFOAM: The Open Source CFD Toolbox
   \\    /   O peration     | Website:  https://openfoam.org
    \\  /    A nd           | Version:  12
     \\/     M anipulation  |
\*---------------------------------------------------------------------------*/
FoamFile
{
    format      ascii;
    class       volVectorField;
    location    "20";
    object      U;
}
// * * * * * * * * * * * * * * * * * * * * * * * * * * * * * * * * * * * * * //

dimensions      [0 1 -1 0 0 0 0];

internalField   nonuniform List<vector> 
4480
(
(2.33735e-05 0 -2.493e-05)
(5.69043e-05 0 -4.61141e-05)
(0.000139297 0 -7.28202e-05)
(0.000264811 0 -0.000107072)
(0.00044246 0 -0.000147798)
(0.000681298 0 -0.000193698)
(0.000988042 0 -0.000243269)
(0.0013668 0 -0.000294611)
(0.00181868 0 -0.000345432)
(0.00234134 0 -0.000393178)
(0.00292866 0 -0.000435233)
(0.00357085 0 -0.000469137)
(0.0042548 0 -0.000492809)
(0.00496475 0 -0.00050475)
(0.00568329 0 -0.00050417)
(0.00639239 0 -0.000491043)
(0.00707448 0 -0.000466077)
(0.00771351 0 -0.000430613)
(0.00829571 0 -0.00038647)
(0.00881015 0 -0.000335771)
(0.00924906 0 -0.000280762)
(0.00960791 0 -0.000223658)
(0.0098852 0 -0.000166508)
(0.0100822 0 -0.000111106)
(0.0102025 0 -5.89212e-05)
(0.0102514 0 -1.10381e-05)
(0.0102361 0 3.18388e-05)
(0.0101636 0 6.93112e-05)
(0.0100418 0 0.000101191)
(0.00987873 0 0.000127489)
(0.00968227 0 0.000148378)
(0.00945988 0 0.000164164)
(0.00921854 0 0.000175258)
(0.00896457 0 0.000182139)
(0.00870358 0 0.000185324)
(0.00844045 0 0.000185345)
(0.00817927 0 0.000182726)
(0.00792344 0 0.000177966)
(0.00767565 0 0.000171528)
(0.00743796 0 0.00016383)
(0.00721189 0 0.000155241)
(0.00699847 0 0.00014608)
(0.0067983 0 0.000136614)
(0.00661165 0 0.000127065)
(0.00643849 0 0.000117611)
(0.00627859 0 0.00010839)
(0.00613153 0 9.95068e-05)
(0.00599678 0 9.10361e-05)
(0.0058737 0 8.30286e-05)
(0.00576162 0 7.55145e-05)
(0.00565983 0 6.85078e-05)
(0.00556759 0 6.20095e-05)
(0.00548419 0 5.60107e-05)
(0.00540895 0 5.04953e-05)
(0.00534117 0 4.54417e-05)
(0.00528024 0 4.08251e-05)
(0.00522554 0 3.66181e-05)
(0.00517652 0 3.27925e-05)
(0.00513266 0 2.93197e-05)
(0.00509348 0 2.61714e-05)
(0.00505853 0 2.33202e-05)
(0.00502742 0 2.07398e-05)
(0.00499978 0 1.84049e-05)
(0.00497529 0 1.6292e-05)
(0.00495363 0 1.43788e-05)
(0.00493455 0 1.26447e-05)
(0.00491781 0 1.10703e-05)
(0.00490319 0 9.63772e-06)
(0.0048905 0 8.33029e-06)
(0.00487958 0 7.13256e-06)
(0.00487029 0 6.03012e-06)
(0.00486249 0 5.00959e-06)
(0.00485608 0 4.05841e-06)
(0.00485097 0 3.16482e-06)
(0.00484709 0 2.31769e-06)
(0.00484438 0 1.50652e-06)
(0.00484279 0 7.21395e-07)
(0.0048423 0 -4.67415e-08)
(0.00484289 0 -8.07322e-07)
(0.00484454 0 -1.56977e-06)
(0.00484728 0 -2.34312e-06)
(0.00485113 0 -3.1369e-06)
(0.00485611 0 -3.96107e-06)
(0.00486228 0 -4.82602e-06)
(0.0048697 0 -5.74278e-06)
(0.00487846 0 -6.72314e-06)
(0.00488865 0 -7.77982e-06)
(0.00490039 0 -8.92669e-06)
(0.00491381 0 -1.0179e-05)
(0.00492909 0 -1.15536e-05)
(0.00494639 0 -1.30693e-05)
(0.00496594 0 -1.47473e-05)
(0.00498797 0 -1.66115e-05)
(0.00501277 0 -1.86891e-05)
(0.00504067 0 -2.10112e-05)
(0.00507201 0 -2.36134e-05)
(0.00510724 0 -2.6537e-05)
(0.00514683 0 -2.98298e-05)
(0.00519133 0 -3.35476e-05)
(0.00524139 0 -3.77559e-05)
(0.00529775 0 -4.25315e-05)
(0.00536126 0 -4.79657e-05)
(0.00543292 0 -5.41672e-05)
(0.00551388 0 -6.12658e-05)
(0.00560552 0 -6.94181e-05)
(0.00570942 0 -7.88139e-05)
(0.00582749 0 -8.96843e-05)
(0.00596197 0 -0.000102313)
(0.00611554 0 -0.00011705)
(0.00629144 0 -0.000134331)
(0.00649359 0 -0.000154698)
(0.00672674 0 -0.000178831)
(0.00699674 0 -0.00020758)
(0.00731078 0 -0.000242007)
(0.0076778 0 -0.000283418)
(0.0081089 0 -0.000333384)
(0.00861786 0 -0.000393712)
(0.00922166 0 -0.000466353)
(0.00994187 0 -0.000553634)
(0.010808 0 -0.000661008)
(0.0118564 0 -0.000806974)
(0.0131021 0 -0.00104247)
(0.0145697 0 -0.00150489)
(0.0170674 0 -0.00285266)
(0.0246199 0 -0.00865448)
(0.0385903 0 -0.0315833)
(0.0431456 0 -0.0802359)
(0.0203341 0 -0.101129)
(-0.00878494 0 -0.103934)
(-0.034175 0 -0.0846428)
(-0.0301239 0 -0.0329175)
(-0.0152311 0 -0.00923747)
(-0.00730343 0 -0.00298243)
(-0.00487587 0 -0.00145793)
(-0.00357288 0 -0.000929266)
(-0.00250338 0 -0.000670636)
(-0.00163781 0 -0.000515087)
(-0.00096001 0 -0.000398911)
(-0.000443651 0 -0.000300731)
(-0.000199002 0 -0.000194557)
(4.11484e-05 0 -5.75414e-05)
(9.33925e-05 0 -9.99058e-05)
(0.000205061 0 -0.000156787)
(0.000366203 0 -0.000228427)
(0.000588749 0 -0.000313581)
(0.000883779 0 -0.000409901)
(0.00125938 0 -0.000514209)
(0.00172045 0 -0.000622445)
(0.00226829 0 -0.000729745)
(0.00290003 0 -0.000830703)
(0.00360832 0 -0.000919765)
(0.00438148 0 -0.000991704)
(0.00520392 0 -0.00104209)
(0.00605698 0 -0.00106773)
(0.00692008 0 -0.00106692)
(0.00777197 0 -0.00103959)
(0.00859197 0 -0.000987225)
(0.00936118 0 -0.000912639)
(0.0100634 0 -0.000819673)
(0.0106856 0 -0.000712801)
(0.0112186 0 -0.000596765)
(0.0116569 0 -0.000476229)
(0.0119984 0 -0.000355513)
(0.0122445 0 -0.000238393)
(0.012399 0 -0.000127966)
(0.012468 0 -2.65669e-05)
(0.0124595 0 6.42968e-05)
(0.012382 0 0.000143795)
(0.0122447 0 0.000211511)
(0.0120571 0 0.000267445)
(0.0118284 0 0.000311956)
(0.0115677 0 0.000345683)
(0.0112831 0 0.000369482)
(0.0109824 0 0.000384356)
(0.0106723 0 0.000391391)
(0.0103588 0 0.000391707)
(0.0100468 0 0.000386407)
(0.00974045 0 0.000376545)
(0.00944317 0 0.000363098)
(0.0091575 0 0.000346953)
(0.00888537 0 0.000328892)
(0.00862808 0 0.000309592)
(0.00838645 0 0.000289622)
(0.00816087 0 0.000269455)
(0.00795138 0 0.00024947)
(0.00775773 0 0.000229963)
(0.00757947 0 0.000211158)
(0.007416 0 0.000193218)
(0.00726657 0 0.000176251)
(0.0071304 0 0.000160324)
(0.00700664 0 0.000145467)
(0.00689443 0 0.000131684)
(0.00679292 0 0.000118958)
(0.00670128 0 0.000107254)
(0.0066187 0 9.65288e-05)
(0.00654441 0 8.67293e-05)
(0.0064777 0 7.77982e-05)
(0.00641788 0 6.96758e-05)
(0.00636434 0 6.23018e-05)
(0.00631648 0 5.56163e-05)
(0.00627378 0 4.95612e-05)
(0.00623575 0 4.40806e-05)
(0.00620195 0 3.91215e-05)
(0.00617198 0 3.46336e-05)
(0.00614547 0 3.05699e-05)
(0.0061221 0 2.68863e-05)
(0.00610158 0 2.35421e-05)
(0.00608365 0 2.0499e-05)
(0.00606809 0 1.77219e-05)
(0.00605468 0 1.51778e-05)
(0.00604325 0 1.28363e-05)
(0.00603366 0 1.0669e-05)
(0.00602576 0 8.64918e-06)
(0.00601945 0 6.75194e-06)
(0.00601465 0 4.95372e-06)
(0.00601127 0 3.23222e-06)
(0.00600927 0 1.56635e-06)
(0.0060086 0 -6.37399e-08)
(0.00600925 0 -1.67742e-06)
(0.00601121 0 -3.29418e-06)
(0.0060145 0 -4.93374e-06)
(0.00601913 0 -6.61635e-06)
(0.00602515 0 -8.36301e-06)
(0.00603262 0 -1.01958e-05)
(0.00604162 0 -1.2138e-05)
(0.00605224 0 -1.42145e-05)
(0.00606462 0 -1.64523e-05)
(0.00607888 0 -1.88807e-05)
(0.0060952 0 -2.15318e-05)
(0.00611376 0 -2.44415e-05)
(0.0061348 0 -2.76494e-05)
(0.00615857 0 -3.12002e-05)
(0.00618536 0 -3.51444e-05)
(0.00621552 0 -3.95395e-05)
(0.00624944 0 -4.44509e-05)
(0.00628755 0 -4.99541e-05)
(0.00633038 0 -5.61358e-05)
(0.00637849 0 -6.30971e-05)
(0.00643258 0 -7.09554e-05)
(0.00649339 0 -7.98485e-05)
(0.00656184 0 -8.99385e-05)
(0.00663895 0 -0.000101417)
(0.00672591 0 -0.000114514)
(0.00682413 0 -0.000129501)
(0.00693523 0 -0.000146709)
(0.00706115 0 -0.000166536)
(0.00720413 0 -0.000189469)
(0.00736687 0 -0.000216105)
(0.0075526 0 -0.000247183)
(0.00776516 0 -0.000283624)
(0.00800924 0 -0.000326581)
(0.00829055 0 -0.000377513)
(0.00861611 0 -0.000438276)
(0.00899468 0 -0.000511252)
(0.00943732 0 -0.000599519)
(0.00995823 0 -0.000707115)
(0.0105762 0 -0.000839435)
(0.0113168 0 -0.00100399)
(0.0122174 0 -0.00121221)
(0.0133365 0 -0.00148477)
(0.0147688 0 -0.00186616)
(0.0166635 0 -0.0024551)
(0.0193019 0 -0.00346583)
(0.0234221 0 -0.0054877)
(0.0303959 0 -0.0106897)
(0.0379399 0 -0.0257421)
(0.0347935 0 -0.057792)
(0.0173947 0 -0.0756274)
(-0.0054624 0 -0.0775229)
(-0.0243998 0 -0.061)
(-0.0277941 0 -0.0272218)
(-0.0197257 0 -0.0112354)
(-0.0124174 0 -0.00559776)
(-0.00819362 0 -0.00337148)
(-0.00556234 0 -0.00226506)
(-0.00373645 0 -0.00163159)
(-0.00241732 0 -0.00122358)
(-0.00143963 0 -0.000924523)
(-0.000702238 0 -0.000679825)
(-0.000323436 0 -0.000457598)
(5.37666e-05 0 -0.000130454)
(0.000121454 0 -0.000205622)
(0.000257118 0 -0.000310972)
(0.000446817 0 -0.000444896)
(0.000705229 0 -0.00060467)
(0.00104566 0 -0.000785846)
(0.00147778 0 -0.000982314)
(0.00200757 0 -0.00118629)
(0.00263678 0 -0.00138853)
(0.00336227 0 -0.00157879)
(0.00417568 0 -0.0017466)
(0.00506357 0 -0.00188214)
(0.00600798 0 -0.00197709)
(0.00698744 0 -0.0020255)
(0.00797829 0 -0.00202421)
(0.0089562 0 -0.00197311)
(0.00989759 0 -0.001875)
(0.010781 0 -0.00173516)
(0.0115881 0 -0.00156074)
(0.0123042 0 -0.00136007)
(0.0129191 0 -0.00114197)
(0.0134265 0 -0.000915129)
(0.0138241 0 -0.000687593)
(0.0141134 0 -0.000466413)
(0.0142986 0 -0.000257402)
(0.0143865 0 -6.49957e-05)
(0.0143859 0 0.000107823)
(0.0143064 0 0.000259346)
(0.0141584 0 0.000388745)
(0.0139525 0 0.000495971)
(0.0136992 0 0.000581645)
(0.0134087 0 0.00064693)
(0.0130903 0 0.000693396)
(0.0127528 0 0.000722903)
(0.0124039 0 0.000737478)
(0.0120504 0 0.000739213)
(0.0116979 0 0.000730185)
(0.0113514 0 0.000712381)
(0.0110146 0 0.000687655)
(0.0106906 0 0.000657687)
(0.0103816 0 0.000623969)
(0.0100892 0 0.000587793)
(0.00981439 0 0.000550251)
(0.00955762 0 0.000512251)
(0.00931899 0 0.000474523)
(0.00909827 0 0.000437643)
(0.00889497 0 0.000402045)
(0.00870844 0 0.000368046)
(0.00853785 0 0.000335861)
(0.00838232 0 0.000305624)
(0.0082409 0 0.000277399)
(0.00811264 0 0.000251199)
(0.00799655 0 0.000226993)
(0.00789171 0 0.000204722)
(0.0077972 0 0.000184304)
(0.00771214 0 0.00016564)
(0.00763573 0 0.000148624)
(0.00756719 0 0.000133143)
(0.00750581 0 0.000119085)
(0.00745092 0 0.000106335)
(0.00740194 0 9.4784e-05)
(0.00735829 0 8.43264e-05)
(0.00731947 0 7.48612e-05)
(0.00728503 0 6.62932e-05)
(0.00725456 0 5.85332e-05)
(0.00722769 0 5.14976e-05)
(0.00720407 0 4.51086e-05)
(0.00718342 0 3.92938e-05)
(0.00716548 0 3.39861e-05)
(0.00715001 0 2.91231e-05)
(0.00713682 0 2.46466e-05)
(0.00712572 0 2.05027e-05)
(0.00711657 0 1.66405e-05)
(0.00710924 0 1.30127e-05)
(0.00710363 0 9.5744e-06)
(0.00709966 0 6.2831e-06)
(0.00709727 0 3.09846e-06)
(0.0070964 0 -1.78685e-08)
(0.00709705 0 -3.10256e-06)
(0.00709919 0 -6.19238e-06)
(0.00710285 0 -9.32516e-06)
(0.00710805 0 -1.25396e-05)
(0.00711483 0 -1.58757e-05)
(0.00712328 0 -1.93754e-05)
(0.00713346 0 -2.30832e-05)
(0.00714551 0 -2.70465e-05)
(0.00715955 0 -3.13164e-05)
(0.00717574 0 -3.59486e-05)
(0.00719427 0 -4.10044e-05)
(0.00721536 0 -4.65515e-05)
(0.00723926 0 -5.26654e-05)
(0.00726626 0 -5.94308e-05)
(0.0072967 0 -6.69434e-05)
(0.00733095 0 -7.5312e-05)
(0.00736946 0 -8.46606e-05)
(0.00741272 0 -9.51317e-05)
(0.0074613 0 -0.000106889)
(0.00751587 0 -0.000120124)
(0.00757715 0 -0.000135058)
(0.00764603 0 -0.00015195)
(0.00772348 0 -0.000171105)
(0.00781065 0 -0.000192884)
(0.00790886 0 -0.000217716)
(0.00801966 0 -0.000246115)
(0.00814483 0 -0.000278696)
(0.00828648 0 -0.000316206)
(0.00844707 0 -0.000359557)
(0.00862953 0 -0.000409863)
(0.00883734 0 -0.000468508)
(0.00907466 0 -0.000537213)
(0.00934652 0 -0.000618149)
(0.00965904 0 -0.000714073)
(0.0100198 0 -0.000828541)
(0.0104381 0 -0.000966199)
(0.010926 0 -0.00113325)
(0.0114989 0 -0.00133822)
(0.0121774 0 -0.00159326)
(0.01299 0 -0.00191665)
(0.0139772 0 -0.00233786)
(0.0151988 0 -0.00290821)
(0.0167433 0 -0.00372375)
(0.0187362 0 -0.00496908)
(0.0213514 0 -0.00699668)
(0.0248041 0 -0.0105079)
(0.028984 0 -0.0170012)
(0.0316363 0 -0.0291012)
(0.0272576 0 -0.0466416)
(0.0146571 0 -0.0578247)
(-0.0018399 0 -0.0590243)
(-0.0155132 0 -0.0487065)
(-0.0201803 0 -0.0305085)
(-0.0173512 0 -0.0177687)
(-0.0129221 0 -0.0108249)
(-0.00928219 0 -0.00701665)
(-0.00655469 0 -0.00480342)
(-0.00451826 0 -0.00344329)
(-0.00298851 0 -0.00254821)
(-0.00182083 0 -0.00190932)
(-0.000911728 0 -0.00141609)
(-0.000418282 0 -0.00101217)
(6.14286e-05 0 -0.000218777)
(0.000137688 0 -0.000327708)
(0.00028773 0 -0.000483809)
(0.000495809 0 -0.000684386)
(0.000779128 0 -0.000925034)
(0.00115335 0 -0.00119897)
(0.00163008 0 -0.00149681)
(0.00221674 0 -0.00180656)
(0.00291583 0 -0.00211398)
(0.00372419 0 -0.00240333)
(0.00463253 0 -0.00265853)
(0.00562557 0 -0.00286451)
(0.00668278 0 -0.00300865)
(0.00777958 0 -0.00308191)
(0.00888893 0 -0.00307962)
(0.00998318 0 -0.00300181)
(0.0110358 0 -0.00285286)
(0.0120226 0 -0.00264094)
(0.0129235 0 -0.00237693)
(0.0137224 0 -0.00207348)
(0.0144083 0 -0.00174387)
(0.0149746 0 -0.00140112)
(0.0154191 0 -0.00105728)
(0.0157437 0 -0.000722877)
(0.0159534 0 -0.000406586)
(0.0160557 0 -0.000115061)
(0.0160603 0 0.000147123)
(0.0159778 0 0.000377295)
(0.0158198 0 0.000574184)
(0.0155978 0 0.000737679)
(0.0153235 0 0.000868673)
(0.015008 0 0.000968874)
(0.0146616 0 0.00104061)
(0.0142939 0 0.00108666)
(0.0139134 0 0.00111005)
(0.0135275 0 0.00111391)
(0.0131425 0 0.00110137)
(0.0127638 0 0.00107542)
(0.0123956 0 0.00103886)
(0.0120412 0 0.000994249)
(0.0117032 0 0.000943834)
(0.0113832 0 0.000889584)
(0.0110823 0 0.000833166)
(0.0108011 0 0.000775964)
(0.0105398 0 0.000719096)
(0.010298 0 0.000663446)
(0.0100753 0 0.000609682)
(0.00987087 0 0.000558295)
(0.00968391 0 0.000509619)
(0.00951343 0 0.000463863)
(0.0093584 0 0.000421132)
(0.00921776 0 0.000381449)
(0.00909045 0 0.000344774)
(0.00897545 0 0.00031102)
(0.00887176 0 0.000280063)
(0.00877843 0 0.00025176)
(0.00869455 0 0.000225949)
(0.0086193 0 0.000202461)
(0.00855189 0 0.000181126)
(0.0084916 0 0.000161774)
(0.00843777 0 0.000144237)
(0.00838978 0 0.000128357)
(0.00834709 0 0.000113981)
(0.0083092 0 0.000100965)
(0.00827566 0 8.91749e-05)
(0.00824605 0 7.8483e-05)
(0.00822003 0 6.87719e-05)
(0.00819726 0 5.99322e-05)
(0.00817745 0 5.18621e-05)
(0.00816036 0 4.4467e-05)
(0.00814576 0 3.76591e-05)
(0.00813347 0 3.13565e-05)
(0.00812331 0 2.54824e-05)
(0.00811515 0 1.99648e-05)
(0.00810888 0 1.4736e-05)
(0.0081044 0 9.73141e-06)
(0.00810164 0 4.88985e-06)
(0.00810057 0 1.52757e-07)
(0.00810114 0 -4.53553e-06)
(0.00810336 0 -9.2305e-06)
(0.00810723 0 -1.39895e-05)
(0.00811278 0 -1.88711e-05)
(0.00812007 0 -2.3936e-05)
(0.00812916 0 -2.92476e-05)
(0.00814016 0 -3.4873e-05)
(0.00815318 0 -4.08837e-05)
(0.00816837 0 -4.7357e-05)
(0.00818589 0 -5.43768e-05)
(0.00820596 0 -6.20352e-05)
(0.0082288 0 -7.04342e-05)
(0.00825469 0 -7.96872e-05)
(0.00828393 0 -8.99214e-05)
(0.00831689 0 -0.00010128)
(0.00835397 0 -0.000113927)
(0.00839563 0 -0.000128047)
(0.00844241 0 -0.000143852)
(0.00849491 0 -0.000161589)
(0.00855382 0 -0.000181539)
(0.00861994 0 -0.000204033)
(0.00869416 0 -0.000229456)
(0.00877752 0 -0.000258259)
(0.00887122 0 -0.000290975)
(0.00897662 0 -0.000328236)
(0.00909533 0 -0.000370797)
(0.00922918 0 -0.000419563)
(0.00938031 0 -0.000475627)
(0.00955124 0 -0.000540318)
(0.00974492 0 -0.000615265)
(0.00996482 0 -0.000702479)
(0.0102151 0 -0.000804465)
(0.0105007 0 -0.000924381)
(0.0108275 0 -0.00106625)
(0.011203 0 -0.00123527)
(0.0116359 0 -0.00143829)
(0.0121377 0 -0.00168452)
(0.0127224 0 -0.00198671)
(0.0134086 0 -0.00236311)
(0.0142203 0 -0.0028409)
(0.015189 0 -0.00346229)
(0.0163557 0 -0.00429558)
(0.0177693 0 -0.00545468)
(0.0194771 0 -0.00713098)
(0.0214961 0 -0.00964034)
(0.0237305 0 -0.0134896)
(0.0257011 0 -0.019433)
(0.0258792 0 -0.0281854)
(0.0216355 0 -0.0386181)
(0.0125255 0 -0.0455964)
(0.0010134 0 -0.0464156)
(-0.00886314 0 -0.0401384)
(-0.0133826 0 -0.0295191)
(-0.013199 0 -0.0203495)
(-0.0110812 0 -0.0140038)
(-0.00866937 0 -0.00983169)
(-0.00649432 0 -0.00708384)
(-0.00467338 0 -0.00523426)
(-0.0031943 0 -0.00394142)
(-0.00199779 0 -0.00299277)
(-0.00102184 0 -0.00226168)
(-0.000474185 0 -0.00167856)
(6.23393e-05 0 -0.000312876)
(0.000139731 0 -0.000456339)
(0.00029247 0 -0.000665482)
(0.000506999 0 -0.000937149)
(0.000803214 0 -0.00126536)
(0.0011994 0 -0.00164088)
(0.00170954 0 -0.00205071)
(0.00234293 0 -0.00247814)
(0.00310321 0 -0.00290317)
(0.00398736 0 -0.00330369)
(0.00498512 0 -0.00365707)
(0.00607913 0 -0.00394218)
(0.00724579 0 -0.00414134)
(0.0084568 0 -0.00424207)
(0.00968115 0 -0.00423812)
(0.0108874 0 -0.00412985)
(0.0120455 0 -0.00392372)
(0.0131288 0 -0.00363134)
(0.0141151 0 -0.00326801)
(0.0149875 0 -0.00285125)
(0.0157342 0 -0.00239933)
(0.016349 0 -0.00193005)
(0.0168304 0 -0.00145976)
(0.0171809 0 -0.00100266)
(0.0174066 0 -0.000570419)
(0.0175161 0 -0.000171978)
(0.0175202 0 0.000186469)
(0.0174307 0 0.000501268)
(0.0172601 0 0.000770704)
(0.017021 0 0.000994634)
(0.0167261 0 0.00117427)
(0.0163874 0 0.00131194)
(0.0160159 0 0.00141079)
(0.0156219 0 0.00147459)
(0.0152146 0 0.00150744)
(0.0148018 0 0.00151361)
(0.0143903 0 0.00149735)
(0.0139857 0 0.00146273)
(0.0135926 0 0.00141356)
(0.0132144 0 0.00135331)
(0.0128538 0 0.00128507)
(0.0125126 0 0.00121153)
(0.012192 0 0.00113497)
(0.0118924 0 0.00105727)
(0.0116141 0 0.000979978)
(0.0113567 0 0.000904299)
(0.0111196 0 0.000831153)
(0.0109021 0 0.000761216)
(0.0107032 0 0.00069495)
(0.0105219 0 0.000632644)
(0.010357 0 0.000574445)
(0.0102074 0 0.000520388)
(0.0100721 0 0.000470421)
(0.0099498 0 0.000424427)
(0.00983956 0 0.000382241)
(0.00974032 0 0.000343666)
(0.00965114 0 0.000308484)
(0.00957111 0 0.000276466)
(0.00949942 0 0.000247378)
(0.00943528 0 0.000220991)
(0.009378 0 0.000197078)
(0.00932693 0 0.00017542)
(0.00928148 0 0.000155812)
(0.00924113 0 0.000138057)
(0.00920539 0 0.000121971)
(0.00917383 0 0.000107383)
(0.00914607 0 9.41305e-05)
(0.00912177 0 8.20662e-05)
(0.00910061 0 7.10511e-05)
(0.00908234 0 6.09567e-05)
(0.00906671 0 5.16633e-05)
(0.00905353 0 4.30596e-05)
(0.00904261 0 3.50412e-05)
(0.00903381 0 2.75103e-05)
(0.00902702 0 2.03745e-05)
(0.00902212 0 1.35464e-05)
(0.00901905 0 6.9424e-06)
(0.00901776 0 4.82603e-07)
(0.00901821 0 -5.90903e-06)
(0.0090204 0 -1.2308e-05)
(0.00902433 0 -1.87921e-05)
(0.00903004 0 -2.54408e-05)
(0.00903757 0 -3.23365e-05)
(0.00904701 0 -3.95651e-05)
(0.00905844 0 -4.72172e-05)
(0.00907201 0 -5.53897e-05)
(0.00908784 0 -6.41867e-05)
(0.00910613 0 -7.37216e-05)
(0.00912708 0 -8.41184e-05)
(0.00915092 0 -9.55142e-05)
(0.00917795 0 -0.000108062)
(0.00920848 0 -0.000121931)
(0.00924286 0 -0.000137315)
(0.00928153 0 -0.000154432)
(0.00932496 0 -0.000173528)
(0.00937368 0 -0.000194888)
(0.00942831 0 -0.000218837)
(0.00948954 0 -0.000245751)
(0.00955818 0 -0.000276066)
(0.00963513 0 -0.00031029)
(0.00972143 0 -0.000349018)
(0.00981825 0 -0.000392949)
(0.00992696 0 -0.000442911)
(0.0100491 0 -0.000499888)
(0.0101865 0 -0.000565057)
(0.0103412 0 -0.000639833)
(0.0105155 0 -0.000725931)
(0.0107124 0 -0.000825447)
(0.010935 0 -0.000940954)
(0.0111872 0 -0.00107565)
(0.0114734 0 -0.00123355)
(0.0117989 0 -0.00141976)
(0.0121702 0 -0.00164082)
(0.0125948 0 -0.00190533)
(0.0130819 0 -0.00222476)
(0.0136424 0 -0.00261476)
(0.0142899 0 -0.00309725)
(0.0150397 0 -0.0037037)
(0.0159095 0 -0.00448036)
(0.0169158 0 -0.00549646)
(0.0180674 0 -0.00685615)
(0.0193482 0 -0.00871377)
(0.0206826 0 -0.0112881)
(0.0218685 0 -0.0148635)
(0.0224412 0 -0.0197356)
(0.0214644 0 -0.0259495)
(0.0177 0 -0.0325356)
(0.0110502 0 -0.0369447)
(0.00300672 0 -0.0375089)
(-0.00416952 0 -0.0336836)
(-0.00816489 0 -0.0271308)
(-0.00920502 0 -0.0206814)
(-0.0085635 0 -0.015503)
(-0.00724066 0 -0.0116365)
(-0.00575082 0 -0.00881463)
(-0.0043273 0 -0.00675276)
(-0.00306089 0 -0.00521961)
(-0.00196464 0 -0.00404708)
(-0.00102335 0 -0.00312273)
(-0.000480735 0 -0.00237789)
(5.53995e-05 0 -0.000403133)
(0.000125787 0 -0.000581034)
(0.000268179 0 -0.000845475)
(0.000476127 0 -0.00119324)
(0.000772632 0 -0.0016169)
(0.00117902 0 -0.00210462)
(0.00171219 0 -0.00263947)
(0.00238387 0 -0.0031993)
(0.00319923 0 -0.00375747)
(0.00415554 0 -0.0042843)
(0.00524144 0 -0.00474938)
(0.00643697 0 -0.00512429)
(0.00771473 0 -0.00538544)
(0.00904181 0 -0.00551637)
(0.0103823 0 -0.00550924)
(0.0117002 0 -0.00536512)
(0.0129616 0 -0.00509323)
(0.014137 0 -0.00470949)
(0.0152023 0 -0.0042345)
(0.0161396 0 -0.0036915)
(0.0169374 0 -0.00310443)
(0.01759 0 -0.00249639)
(0.0180971 0 -0.00188836)
(0.0184625 0 -0.00129845)
(0.0186938 0 -0.000741404)
(0.0188012 0 -0.000228441)
(0.0187968 0 0.000232694)
(0.0186936 0 0.000637425)
(0.0185053 0 0.000983644)
(0.0182457 0 0.00127127)
(0.0179282 0 0.00150192)
(0.0175656 0 0.00167864)
(0.0171697 0 0.00180552)
(0.0167514 0 0.00188743)
(0.0163201 0 0.00192964)
(0.0158841 0 0.00193764)
(0.0154504 0 0.00191688)
(0.0150249 0 0.00187258)
(0.0146121 0 0.00180965)
(0.0142156 0 0.00173252)
(0.0138381 0 0.00164515)
(0.0134813 0 0.00155098)
(0.0131464 0 0.00145295)
(0.0128338 0 0.00135346)
(0.0125437 0 0.0012545)
(0.0122756 0 0.0011576)
(0.0120289 0 0.00106396)
(0.0118026 0 0.000974428)
(0.0115959 0 0.000889603)
(0.0114076 0 0.000809854)
(0.0112364 0 0.000735367)
(0.0110812 0 0.000666187)
(0.0109407 0 0.000602246)
(0.0108139 0 0.000543393)
(0.0106996 0 0.000489415)
(0.0105967 0 0.000440061)
(0.0105043 0 0.000395049)
(0.0104214 0 0.000354087)
(0.0103471 0 0.000316875)
(0.0102806 0 0.000283116)
(0.0102212 0 0.000252523)
(0.0101683 0 0.000224815)
(0.0101212 0 0.000199728)
(0.0100793 0 0.000177011)
(0.0100422 0 0.000156429)
(0.0100095 0 0.000137761)
(0.00998064 0 0.000120803)
(0.00995539 0 0.000105364)
(0.00993339 0 9.12667e-05)
(0.00991437 0 7.83478e-05)
(0.00989808 0 6.64543e-05)
(0.00988432 0 5.54439e-05)
(0.00987289 0 4.51836e-05)
(0.00986366 0 3.55488e-05)
(0.00985649 0 2.64217e-05)
(0.00985128 0 1.76905e-05)
(0.00984795 0 9.24889e-06)
(0.00984644 0 9.94658e-07)
(0.00984673 0 -7.16968e-06)
(0.00984879 0 -1.53406e-05)
(0.00985265 0 -2.3617e-05)
(0.00985833 0 -3.20998e-05)
(0.00986587 0 -4.08936e-05)
(0.00987536 0 -5.01073e-05)
(0.0098869 0 -5.98557e-05)
(0.00990059 0 -7.02613e-05)
(0.00991661 0 -8.14556e-05)
(0.00993511 0 -9.35815e-05)
(0.00995631 0 -0.000106795)
(0.00998046 0 -0.000121269)
(0.0100078 0 -0.000137195)
(0.0100387 0 -0.000154787)
(0.0100735 0 -0.000174284)
(0.0101126 0 -0.00019596)
(0.0101564 0 -0.000220122)
(0.0102056 0 -0.000247123)
(0.0102607 0 -0.000277366)
(0.0103223 0 -0.000311317)
(0.0103913 0 -0.000349511)
(0.0104685 0 -0.000392574)
(0.010555 0 -0.000441233)
(0.0106517 0 -0.000496341)
(0.0107601 0 -0.000558905)
(0.0108816 0 -0.000630113)
(0.0110177 0 -0.000711384)
(0.0111705 0 -0.000804414)
(0.0113421 0 -0.000911247)
(0.0115349 0 -0.00103437)
(0.0117518 0 -0.00117681)
(0.011996 0 -0.00134231)
(0.0122713 0 -0.00153554)
(0.012582 0 -0.00176236)
(0.012933 0 -0.00203024)
(0.0133299 0 -0.00234883)
(0.0137791 0 -0.00273079)
(0.0142874 0 -0.00319297)
(0.014862 0 -0.00375817)
(0.0155093 0 -0.00445769)
(0.016233 0 -0.00533485)
(0.0170295 0 -0.00644963)
(0.0178795 0 -0.00788389)
(0.0187324 0 -0.00974488)
(0.0194799 0 -0.0121617)
(0.0199171 0 -0.0152632)
(0.0196877 0 -0.0191136)
(0.0182452 0 -0.02355)
(0.0150244 0 -0.0278672)
(0.0100798 0 -0.0307074)
(0.00431848 0 -0.0310925)
(-0.000931138 0 -0.0287573)
(-0.00435879 0 -0.0245693)
(-0.00588184 0 -0.0200325)
(-0.00608916 0 -0.0159759)
(-0.00555476 0 -0.0126388)
(-0.00467073 0 -0.00999285)
(-0.00367192 0 -0.00792021)
(-0.00268586 0 -0.00628939)
(-0.00176682 0 -0.00498617)
(-0.000934731 0 -0.00392443)
(-0.000443594 0 -0.00304474)
(4.01698e-05 0 -0.000478495)
(9.49467e-05 0 -0.000689365)
(0.000213185 0 -0.00101085)
(0.000400988 0 -0.00143992)
(0.00068502 0 -0.00196777)
(0.00109016 0 -0.00257985)
(0.00163691 0 -0.00325485)
(0.00234005 0 -0.00396446)
(0.0032067 0 -0.00467418)
(0.00423458 0 -0.00534532)
(0.00541091 0 -0.00593802)
(0.00671249 0 -0.00641509)
(0.0081071 0 -0.00674586)
(0.00955601 0 -0.00690937)
(0.0110174 0 -0.0068962)
(0.0124495 0 -0.00670875)
(0.0138141 0 -0.00636002)
(0.0150785 0 -0.0058714)
(0.0162169 0 -0.00526997)
(0.0172109 0 -0.00458572)
(0.0180495 0 -0.0038491)
(0.0187284 0 -0.00308908)
(0.0192488 0 -0.00233164)
(0.0196167 0 -0.00159896)
(0.0198418 0 -0.000908863)
(0.0199361 0 -0.000274757)
(0.0199133 0 0.000294253)
(0.019788 0 0.000792814)
(0.0195751 0 0.00121856)
(0.0192896 0 0.00157161)
(0.0189458 0 0.00185417)
(0.0185571 0 0.00207013)
(0.0181362 0 0.00222469)
(0.017694 0 0.00232391)
(0.0172404 0 0.00237439)
(0.0167838 0 0.00238292)
(0.0163314 0 0.00235622)
(0.0158889 0 0.00230076)
(0.0154608 0 0.00222254)
(0.0150508 0 0.00212704)
(0.0146612 0 0.00201911)
(0.0142939 0 0.00190297)
(0.0139497 0 0.00178219)
(0.013629 0 0.00165974)
(0.0133318 0 0.00153803)
(0.0130576 0 0.00141894)
(0.0128056 0 0.00130391)
(0.0125747 0 0.00119399)
(0.0123641 0 0.0010899)
(0.0121722 0 0.000992068)
(0.0119981 0 0.000900728)
(0.0118403 0 0.000815924)
(0.0116976 0 0.000737566)
(0.0115689 0 0.000665462)
(0.0114529 0 0.000599348)
(0.0113485 0 0.000538909)
(0.0112548 0 0.000483799)
(0.0111707 0 0.000433655)
(0.0110954 0 0.000388109)
(0.011028 0 0.000346794)
(0.0109679 0 0.000309357)
(0.0109142 0 0.000275453)
(0.0108665 0 0.000244757)
(0.0108241 0 0.000216963)
(0.0107865 0 0.00019178)
(0.0107532 0 0.000168941)
(0.010724 0 0.000148193)
(0.0106984 0 0.000129304)
(0.010676 0 0.000112058)
(0.0106567 0 9.62541e-05)
(0.0106401 0 8.17053e-05)
(0.010626 0 6.82384e-05)
(0.0106144 0 5.56911e-05)
(0.0106049 0 4.39114e-05)
(0.0105975 0 3.27557e-05)
(0.0105921 0 2.20879e-05)
(0.0105885 0 1.17781e-05)
(0.0105868 0 1.70186e-06)
(0.0105869 0 -8.26045e-06)
(0.0105888 0 -1.82267e-05)
(0.0105925 0 -2.83169e-05)
(0.0105979 0 -3.86536e-05)
(0.0106053 0 -4.93636e-05)
(0.0106146 0 -6.05784e-05)
(0.0106259 0 -7.24371e-05)
(0.0106393 0 -8.50872e-05)
(0.0106551 0 -9.86873e-05)
(0.0106733 0 -0.000113409)
(0.0106942 0 -0.00012944)
(0.010718 0 -0.000146988)
(0.0107449 0 -0.00016628)
(0.0107753 0 -0.000187574)
(0.0108095 0 -0.000211154)
(0.010848 0 -0.000237344)
(0.010891 0 -0.00026651)
(0.0109393 0 -0.000299067)
(0.0109932 0 -0.000335492)
(0.0110535 0 -0.000376331)
(0.0111209 0 -0.000422212)
(0.0111962 0 -0.000473862)
(0.0112802 0 -0.000532128)
(0.011374 0 -0.000597996)
(0.0114789 0 -0.000672623)
(0.0115959 0 -0.000757372)
(0.0117267 0 -0.000853855)
(0.0118728 0 -0.000963993)
(0.0120361 0 -0.00109008)
(0.0122186 0 -0.0012349)
(0.0124226 0 -0.00140179)
(0.0126506 0 -0.00159486)
(0.0129056 0 -0.00181916)
(0.0131905 0 -0.00208097)
(0.0135086 0 -0.00238817)
(0.0138634 0 -0.00275071)
(0.014258 0 -0.00318137)
(0.0146953 0 -0.00369664)
(0.0151767 0 -0.00431794)
(0.0157006 0 -0.00507329)
(0.0162602 0 -0.00599906)
(0.0168387 0 -0.00714185)
(0.0174022 0 -0.0085591)
(0.0178878 0 -0.0103166)
(0.0181885 0 -0.0124784)
(0.018135 0 -0.0150825)
(0.0174812 0 -0.0180912)
(0.0159197 0 -0.0213021)
(0.013205 0 -0.024227)
(0.00944165 0 -0.0261114)
(0.00519002 0 -0.0263906)
(0.00125872 0 -0.0249371)
(-0.00163327 0 -0.0221834)
(-0.00326966 0 -0.0189661)
(-0.00392337 0 -0.0158368)
(-0.00390985 0 -0.0130566)
(-0.00349659 0 -0.0106973)
(-0.00287691 0 -0.00873631)
(-0.00217686 0 -0.00711272)
(-0.00146672 0 -0.005758)
(-0.000786882 0 -0.0046126)
(-0.000376708 0 -0.00362863)
(1.65298e-05 0 -0.000527341)
(4.69139e-05 0 -0.000768216)
(0.000126948 0 -0.00114801)
(0.000280978 0 -0.00166391)
(0.000539965 0 -0.00230578)
(0.000932943 0 -0.00305619)
(0.00148476 0 -0.00388901)
(0.00221394 0 -0.00476883)
(0.00313009 0 -0.00565189)
(0.00423149 0 -0.00648858)
(0.00550358 0 -0.00722755)
(0.006919 0 -0.0078209)
(0.0084394 0 -0.00822947)
(0.0100188 0 -0.00842716)
(0.0116079 0 -0.0084032)
(0.0131584 0 -0.00816225)
(0.0146271 0 -0.00772246)
(0.0159777 0 -0.00711229)
(0.0171829 0 -0.00636676)
(0.0182245 0 -0.00552389)
(0.0190927 0 -0.0046216)
(0.0197849 0 -0.00369532)
(0.0203052 0 -0.00277642)
(0.0206621 0 -0.00189121)
(0.0208678 0 -0.00106053)
(0.0209367 0 -0.000299749)
(0.0208846 0 0.000380965)
(0.0207276 0 0.000975716)
(0.0204823 0 0.0014821)
(0.0201646 0 0.00190064)
(0.0197899 0 0.00223435)
(0.0193724 0 0.00248821)
(0.0189248 0 0.00266866)
(0.0184587 0 0.00278317)
(0.0179839 0 0.00283973)
(0.0175089 0 0.00284658)
(0.0170406 0 0.0028118)
(0.0165846 0 0.00274312)
(0.0161454 0 0.00264772)
(0.0157261 0 0.0025321)
(0.0153291 0 0.00240204)
(0.0149558 0 0.00226252)
(0.014607 0 0.00211778)
(0.0142829 0 0.0019713)
(0.0139831 0 0.00182593)
(0.013707 0 0.00168387)
(0.0134538 0 0.0015468)
(0.0132222 0 0.00141593)
(0.0130112 0 0.00129211)
(0.0128193 0 0.00117582)
(0.0126454 0 0.00106732)
(0.0124879 0 0.000966641)
(0.0123457 0 0.000873664)
(0.0122175 0 0.000788149)
(0.012102 0 0.000709771)
(0.0119982 0 0.000638148)
(0.0119051 0 0.000572862)
(0.0118215 0 0.000513477)
(0.0117467 0 0.000459551)
(0.0116799 0 0.000410647)
(0.0116201 0 0.00036634)
(0.0115669 0 0.000326222)
(0.0115195 0 0.000289907)
(0.0114774 0 0.000257027)
(0.0114401 0 0.00022724)
(0.0114071 0 0.000200227)
(0.0113781 0 0.00017569)
(0.0113526 0 0.000153354)
(0.0113304 0 0.000132961)
(0.0113111 0 0.000114276)
(0.0112946 0 9.70773e-05)
(0.0112806 0 8.11603e-05)
(0.0112689 0 6.63337e-05)
(0.0112594 0 5.24181e-05)
(0.0112519 0 3.92444e-05)
(0.0112464 0 2.66522e-05)
(0.0112427 0 1.44886e-05)
(0.0112408 0 2.60674e-06)
(0.0112407 0 -9.13484e-06)
(0.0112423 0 -2.08754e-05)
(0.0112457 0 -3.27556e-05)
(0.0112508 0 -4.49194e-05)
(0.0112578 0 -5.75147e-05)
(0.0112666 0 -7.06955e-05)
(0.0112774 0 -8.46237e-05)
(0.0112903 0 -9.94711e-05)
(0.0113054 0 -0.000115422)
(0.0113229 0 -0.000132676)
(0.0113429 0 -0.000151449)
(0.0113657 0 -0.000171982)
(0.0113916 0 -0.000194537)
(0.0114207 0 -0.00021941)
(0.0114535 0 -0.000246927)
(0.0114903 0 -0.000277459)
(0.0115315 0 -0.000311424)
(0.0115776 0 -0.000349294)
(0.011629 0 -0.000391608)
(0.0116864 0 -0.000438984)
(0.0117504 0 -0.000492127)
(0.0118218 0 -0.000551854)
(0.0119012 0 -0.000619107)
(0.0119896 0 -0.000694981)
(0.0120881 0 -0.000780751)
(0.0121976 0 -0.000877911)
(0.0123194 0 -0.000988218)
(0.0124548 0 -0.00111375)
(0.0126053 0 -0.00125697)
(0.0127724 0 -0.00142081)
(0.0129578 0 -0.00160882)
(0.0131632 0 -0.00182525)
(0.0133906 0 -0.00207529)
(0.0136417 0 -0.00236527)
(0.0139182 0 -0.00270298)
(0.0142212 0 -0.00309808)
(0.0145514 0 -0.00356255)
(0.0149078 0 -0.00411138)
(0.0152873 0 -0.00476322)
(0.0156827 0 -0.00554116)
(0.0160807 0 -0.00647326)
(0.0164576 0 -0.00759249)