/*--------------------------------*- C++ -*----------------------------------*\
  =========                 |
  \\      /  F ield         | OpenFOAM: The Open Source CFD Toolbox
   \\    /   O peration     | Website:  https://openfoam.org
    \\  /    A nd           | Version:  12
     \\/     M anipulation  |
\*---------------------------------------------------------------------------*/
FoamFile
{
    format      ascii;
    class       volVectorField;
    location    "20";
    object      UMean;
}
// * * * * * * * * * * * * * * * * * * * * * * * * * * * * * * * * * * * * * //

dimensions      [0 1 -1 0 0 0 0];

internalField   nonuniform List<vector> 
4480
(
(8.17693e-05 0 -8.26029e-05)
(0.00017607 0 -0.000113983)
(0.00035744 0 -0.000139362)
(0.000575229 0 -0.000166024)
(0.000828075 0 -0.000192617)
(0.00111744 0 -0.000218428)
(0.00144281 0 -0.000243187)
(0.00180251 0 -0.000266456)
(0.00219407 0 -0.000287542)
(0.00261392 0 -0.000305608)
(0.00305721 0 -0.000319774)
(0.00351783 0 -0.000329227)
(0.00398855 0 -0.00033332)
(0.00446139 0 -0.000331651)
(0.00492794 0 -0.000324116)
(0.0053799 0 -0.000310926)
(0.00580945 0 -0.000292588)
(0.0062097 0 -0.000269853)
(0.00657498 0 -0.000243651)
(0.00690104 0 -0.000215006)
(0.00718514 0 -0.000184967)
(0.00742601 0 -0.000154537)
(0.00762377 0 -0.000124618)
(0.00777974 0 -9.59792e-05)
(0.00789622 0 -6.92333e-05)
(0.00797623 0 -4.48211e-05)
(0.00802343 0 -2.3016e-05)
(0.00804161 0 -3.95109e-06)
(0.00803469 0 1.23464e-05)
(0.0080066 0 2.59407e-05)
(0.00796111 0 3.69643e-05)
(0.00790175 0 4.56026e-05)
(0.00783177 0 5.20781e-05)
(0.00775406 0 5.66332e-05)
(0.00767117 0 5.9517e-05)
(0.0075853 0 6.09777e-05)
(0.00749829 0 6.12528e-05)
(0.00741166 0 6.05622e-05)
(0.00732662 0 5.9105e-05)
(0.00724413 0 5.70595e-05)
(0.0071649 0 5.45803e-05)
(0.00708945 0 5.17984e-05)
(0.00701812 0 4.88249e-05)
(0.00695111 0 4.57503e-05)
(0.0068885 0 4.26476e-05)
(0.00683029 0 3.95744e-05)
(0.00677639 0 3.65746e-05)
(0.00672669 0 3.36804e-05)
(0.006681 0 3.09155e-05)
(0.00663913 0 2.8295e-05)
(0.00660086 0 2.5828e-05)
(0.00656599 0 2.35184e-05)
(0.00653427 0 2.13661e-05)
(0.00650549 0 1.93683e-05)
(0.00647943 0 1.75199e-05)
(0.00645588 0 1.58141e-05)
(0.00643465 0 1.42434e-05)
(0.00641556 0 1.27991e-05)
(0.00639842 0 1.14723e-05)
(0.00638308 0 1.02542e-05)
(0.00636939 0 9.13568e-06)
(0.00635722 0 8.10806e-06)
(0.00634644 0 7.16266e-06)
(0.00633694 0 6.29122e-06)
(0.00632863 0 5.48581e-06)
(0.00632141 0 4.7388e-06)
(0.00631521 0 4.04291e-06)
(0.00630996 0 3.39116e-06)
(0.0063056 0 2.77692e-06)
(0.00630209 0 2.19372e-06)
(0.00629938 0 1.63537e-06)
(0.00629745 0 1.0959e-06)
(0.00629627 0 5.6947e-07)
(0.00629582 0 5.02952e-08)
(0.00629611 0 -4.67309e-07)
(0.00629712 0 -9.88992e-07)
(0.00629888 0 -1.52043e-06)
(0.0063014 0 -2.06743e-06)
(0.0063047 0 -2.6361e-06)
(0.00630883 0 -3.23288e-06)
(0.00631382 0 -3.86462e-06)
(0.00631972 0 -4.53872e-06)
(0.00632662 0 -5.26314e-06)
(0.00633457 0 -6.04657e-06)
(0.00634367 0 -6.89846e-06)
(0.00635403 0 -7.82924e-06)
(0.00636575 0 -8.85043e-06)
(0.00637899 0 -9.97488e-06)
(0.00639389 0 -1.12169e-05)
(0.00641063 0 -1.25927e-05)
(0.00642941 0 -1.41204e-05)
(0.00645046 0 -1.58207e-05)
(0.00647404 0 -1.77171e-05)
(0.00650044 0 -1.98365e-05)
(0.00652999 0 -2.22097e-05)
(0.00656308 0 -2.48722e-05)
(0.00660014 0 -2.78653e-05)
(0.00664167 0 -3.12367e-05)
(0.00668823 0 -3.50423e-05)
(0.00674048 0 -3.93477e-05)
(0.00679918 0 -4.42301e-05)
(0.00686519 0 -4.9781e-05)
(0.00693952 0 -5.61096e-05)
(0.00702335 0 -6.33465e-05)
(0.00711806 0 -7.16493e-05)
(0.00722527 0 -8.1209e-05)
(0.00734689 0 -9.22587e-05)
(0.00748519 0 -0.000105085)
(0.00764289 0 -0.000120042)
(0.00782326 0 -0.00013757)
(0.00803025 0 -0.00015822)
(0.00826868 0 -0.000182686)
(0.00854447 0 -0.000211836)
(0.00886493 0 -0.000246764)
(0.00923913 0 -0.000288821)
(0.00967838 0 -0.000339651)
(0.0101967 0 -0.000401166)
(0.0108116 0 -0.000475456)
(0.0115451 0 -0.000564975)
(0.0124272 0 -0.000675037)
(0.0134947 0 -0.000823138)
(0.0147628 0 -0.00105741)
(0.0162532 0 -0.00150866)
(0.0187511 0 -0.00281636)
(0.0262234 0 -0.00850837)
(0.040031 0 -0.0313263)
(0.0443584 0 -0.0800897)
(0.0212125 0 -0.100861)
(-0.00822289 0 -0.103818)
(-0.0341778 0 -0.084694)
(-0.0304356 0 -0.0326553)
(-0.015713 0 -0.00908385)
(-0.00787409 0 -0.0029352)
(-0.0054511 0 -0.00146728)
(-0.00410603 0 -0.000970054)
(-0.00296694 0 -0.000730835)
(-0.00201155 0 -0.000587747)
(-0.00122784 0 -0.000479262)
(-0.000595932 0 -0.000385162)
(-0.000274802 0 -0.000272217)
(0.000111062 0 -0.000176206)
(0.000233771 0 -0.000237688)
(0.000457319 0 -0.000294746)
(0.000720879 0 -0.000350707)
(0.00102533 0 -0.000406009)
(0.00137285 0 -0.000460187)
(0.00176308 0 -0.000512538)
(0.00219428 0 -0.000561952)
(0.00266363 0 -0.000606888)
(0.00316689 0 -0.000645521)
(0.0036983 0 -0.000675948)
(0.00425056 0 -0.000696412)
(0.00481507 0 -0.000705508)
(0.00538229 0 -0.00070236)
(0.00594222 0 -0.000686735)
(0.00648498 0 -0.000659072)
(0.00700127 0 -0.000620444)
(0.0074829 0 -0.000572448)
(0.00792312 0 -0.000517059)
(0.00831684 0 -0.000456458)
(0.00866078 0 -0.000392873)
(0.00895337 0 -0.000328431)
(0.00919466 0 -0.000265049)
(0.00938613 0 -0.000204357)
(0.00953043 0 -0.000147651)
(0.00963106 0 -9.58758e-05)
(0.00969224 0 -4.96193e-05)
(0.00971849 0 -9.15973e-06)
(0.00971444 0 2.54432e-05)
(0.00968474 0 5.43195e-05)
(0.00963388 0 7.7749e-05)
(0.00956606 0 9.61235e-05)
(0.00948517 0 0.000109912)
(0.00939469 0 0.000119626)
(0.00929767 0 0.000125796)
(0.00919677 0 0.000128945)
(0.00909421 0 0.000129575)
(0.00899185 0 0.000128152)
(0.00889116 0 0.0001251)
(0.00879333 0 0.000120796)
(0.00869922 0 0.000115567)
(0.00860949 0 0.000109693)
(0.00852456 0 0.000103409)
(0.0084447 0 9.6907e-05)
(0.00837001 0 9.03427e-05)
(0.00830052 0 8.38384e-05)
(0.00823615 0 7.74876e-05)
(0.00817673 0 7.13597e-05)
(0.00812209 0 6.55042e-05)
(0.00807199 0 5.99539e-05)
(0.00802619 0 5.47279e-05)
(0.00798442 0 4.98349e-05)
(0.00794642 0 4.5275e-05)
(0.00791193 0 4.10422e-05)
(0.00788069 0 3.71259e-05)
(0.00785246 0 3.35119e-05)
(0.00782699 0 3.01838e-05)
(0.00780408 0 2.71236e-05)
(0.00778351 0 2.43126e-05)
(0.0077651 0 2.17317e-05)
(0.00774866 0 1.93619e-05)
(0.00773404 0 1.71847e-05)
(0.00772109 0 1.51817e-05)
(0.00770968 0 1.33355e-05)
(0.00769969 0 1.16293e-05)
(0.00769101 0 1.00469e-05)
(0.00768355 0 8.57285e-06)
(0.00767724 0 7.19247e-06)
(0.007672 0 5.89162e-06)
(0.00766777 0 4.65669e-06)
(0.00766451 0 3.4746e-06)
(0.00766218 0 2.33264e-06)
(0.00766075 0 1.21844e-06)
(0.0076602 0 1.19792e-07)
(0.00766053 0 -9.7534e-07)
(0.00766175 0 -2.07895e-06)
(0.00766385 0 -3.20309e-06)
(0.00766686 0 -4.36002e-06)
(0.00767082 0 -5.56259e-06)
(0.00767577 0 -6.82444e-06)
(0.00768175 0 -8.1601e-06)
(0.00768883 0 -9.58519e-06)
(0.0076971 0 -1.11165e-05)
(0.00770664 0 -1.27724e-05)
(0.00771756 0 -1.45729e-05)
(0.00772999 0 -1.65399e-05)
(0.00774406 0 -1.86978e-05)
(0.00775994 0 -2.10737e-05)
(0.00777782 0 -2.36979e-05)
(0.00779791 0 -2.66043e-05)
(0.00782044 0 -2.98315e-05)
(0.0078457 0 -3.34229e-05)
(0.00787398 0 -3.74281e-05)
(0.00790564 0 -4.19037e-05)
(0.00794108 0 -4.69149e-05)
(0.00798076 0 -5.25364e-05)
(0.00802519 0 -5.88549e-05)
(0.00807496 0 -6.59711e-05)
(0.00813075 0 -7.40026e-05)
(0.00819335 0 -8.30873e-05)
(0.00826364 0 -9.33877e-05)
(0.00834266 0 -0.000105096)
(0.0084316 0 -0.000118442)
(0.00853188 0 -0.0001337)
(0.00864511 0 -0.0001512)
(0.00877321 0 -0.000171344)
(0.00891843 0 -0.000194622)
(0.00908347 0 -0.000221635)
(0.00927151 0 -0.000253128)
(0.00948641 0 -0.000290029)
(0.00973282 0 -0.000333506)
(0.0100164 0 -0.000385034)
(0.0103442 0 -0.000446496)
(0.0107248 0 -0.000520309)
(0.0111693 0 -0.000609605)
(0.0116917 0 -0.000718481)
(0.0123106 0 -0.000852405)
(0.0130512 0 -0.00101893)
(0.0139499 0 -0.00122937)
(0.0150638 0 -0.00150385)
(0.0164844 0 -0.00188511)
(0.0183561 0 -0.00246783)
(0.0209525 0 -0.00345845)
(0.0249952 0 -0.00543082)
(0.0318334 0 -0.0105261)
(0.0391854 0 -0.025403)
(0.0358201 0 -0.0572845)
(0.0181856 0 -0.0750061)
(-0.00490137 0 -0.0769824)
(-0.024211 0 -0.0606117)
(-0.0278558 0 -0.0268895)
(-0.0199768 0 -0.0110414)
(-0.0128019 0 -0.00552287)
(-0.00864208 0 -0.0033803)
(-0.00601833 0 -0.00233208)
(-0.00415715 0 -0.00173974)
(-0.00276994 0 -0.00136039)
(-0.00169934 0 -0.0010792)
(-0.000853224 0 -0.000840804)
(-0.00039994 0 -0.000608063)
(0.000128809 0 -0.000351825)
(0.000275119 0 -0.000457876)
(0.000532754 0 -0.000562129)
(0.000832201 0 -0.000665569)
(0.00117645 0 -0.000768509)
(0.00156893 0 -0.000870123)
(0.00200985 0 -0.000968848)
(0.00249776 0 -0.00106235)
(0.00302981 0 -0.00114759)
(0.00360144 0 -0.00122101)
(0.00420615 0 -0.00127899)
(0.00483557 0 -0.00131817)
(0.00547979 0 -0.00133587)
(0.00612774 0 -0.00133043)
(0.00676784 0 -0.00130142)
(0.0073886 0 -0.00124966)
(0.00797929 0 -0.00117719)
(0.00853047 0 -0.001087)
(0.0090344 0 -0.000982829)
(0.00948531 0 -0.000868762)
(0.00987944 0 -0.000748984)
(0.0102151 0 -0.000627492)
(0.0104923 0 -0.000507885)
(0.0107129 0 -0.000393226)
(0.0108798 0 -0.000285959)
(0.0109971 0 -0.000187876)
(0.0110694 0 -0.000100124)
(0.011102 0 -2.32701e-05)
(0.0111002 0 4.25574e-05)
(0.0110691 0 9.75889e-05)
(0.0110139 0 0.000142339)
(0.0109394 0 0.000177536)
(0.01085 0 0.000204054)
(0.0107496 0 0.000222851)
(0.0106416 0 0.000234922)
(0.0105292 0 0.000241252)
(0.0104147 0 0.000242787)
(0.0103004 0 0.000240408)
(0.0101878 0 0.000234914)
(0.0100784 0 0.00022702)
(0.00997309 0 0.000217346)
(0.00987266 0 0.000206424)
(0.00977757 0 0.000194701)
(0.00968813 0 0.000182543)
(0.00960448 0 0.000170247)
(0.00952663 0 0.000158046)
(0.0094545 0 0.000146121)
(0.00938793 0 0.000134604)
(0.00932669 0 0.000123591)
(0.00927054 0 0.000113146)
(0.0092192 0 0.000103305)
(0.00917238 0 9.40877e-05)
(0.00912978 0 8.54945e-05)
(0.0090911 0 7.75151e-05)
(0.00905607 0 7.013e-05)
(0.00902441 0 6.33131e-05)
(0.00899585 0 5.70338e-05)
(0.00897015 0 5.12587e-05)
(0.00894707 0 4.59528e-05)
(0.00892641 0 4.10803e-05)
(0.00890796 0 3.66057e-05)
(0.00889155 0 3.24937e-05)
(0.00887701 0 2.87103e-05)
(0.0088642 0 2.52226e-05)
(0.00885298 0 2.19987e-05)
(0.00884323 0 1.90084e-05)
(0.00883485 0 1.62226e-05)
(0.00882775 0 1.36136e-05)
(0.00882186 0 1.11546e-05)
(0.0088171 0 8.82012e-06)
(0.00881342 0 6.58549e-06)
(0.00881079 0 4.42671e-06)
(0.00880916 0 2.32039e-06)
(0.00880853 0 2.43562e-07)
(0.00880888 0 -1.82653e-06)
(0.00881022 0 -3.91257e-06)
(0.00881255 0 -6.03738e-06)
(0.00881591 0 -8.22418e-06)
(0.00882032 0 -1.04972e-05)
(0.00882584 0 -1.28822e-05)
(0.00883251 0 -1.54065e-05)
(0.00884042 0 -1.80997e-05)
(0.00884966 0 -2.09935e-05)
(0.00886031 0 -2.41223e-05)
(0.00887251 0 -2.75238e-05)
(0.0088864 0 -3.12395e-05)
(0.00890212 0 -3.53152e-05)
(0.00891986 0 -3.98019e-05)
(0.00893983 0 -4.47566e-05)
(0.00896227 0 -5.02433e-05)
(0.00898743 0 -5.63342e-05)
(0.00901562 0 -6.31111e-05)
(0.00904718 0 -7.06672e-05)
(0.0090825 0 -7.91087e-05)
(0.00912202 0 -8.85576e-05)
(0.00916625 0 -9.91541e-05)
(0.00921574 0 -0.000111061)
(0.00927116 0 -0.000124465)
(0.00933325 0 -0.000139588)
(0.00940285 0 -0.000156687)
(0.00948095 0 -0.000176063)
(0.00956867 0 -0.000198077)
(0.00966731 0 -0.000223153)
(0.00977839 0 -0.000251803)
(0.00990365 0 -0.00028464)
(0.0100452 0 -0.000322408)
(0.0102053 0 -0.000366012)
(0.010387 0 -0.000416565)
(0.0105936 0 -0.000475445)
(0.0108292 0 -0.000544371)
(0.0110987 0 -0.000625505)
(0.011408 0 -0.000721601)
(0.0117644 0 -0.000836201)
(0.0121772 0 -0.000973934)
(0.0126577 0 -0.00114096)
(0.0132209 0 -0.00134572)
(0.0138867 0 -0.00160015)
(0.0146822 0 -0.00192212)
(0.0156459 0 -0.00234016)
(0.016835 0 -0.00290369)
(0.0183335 0 -0.00370508)
(0.0202615 0 -0.00492238)
(0.0227867 0 -0.00689807)
(0.026118 0 -0.0103207)
(0.0301452 0 -0.0166771)
(0.0326299 0 -0.0285954)
(0.0280926 0 -0.0459444)
(0.0153402 0 -0.0570018)
(-0.00129733 0 -0.0582228)
(-0.0152089 0 -0.0480224)
(-0.0200556 0 -0.0299713)
(-0.0173887 0 -0.0174102)
(-0.0130951 0 -0.0106351)
(-0.00954676 0 -0.00696748)
(-0.00686361 0 -0.004865)
(-0.00482806 0 -0.00358926)
(-0.00326241 0 -0.00275575)
(-0.00202954 0 -0.0021567)
(-0.00103494 0 -0.00167988)
(-0.000479342 0 -0.0012631)
(0.000141744 0 -0.000549075)
(0.000302357 0 -0.000700628)
(0.00058293 0 -0.000852733)
(0.000907287 0 -0.00100571)
(0.00127988 0 -0.00115942)
(0.00170544 0 -0.00131245)
(0.00218508 0 -0.00146216)
(0.00271794 0 -0.00160474)
(0.00330145 0 -0.00173526)
(0.00393087 0 -0.00184815)
(0.00459907 0 -0.00193765)
(0.00529664 0 -0.00199851)
(0.00601217 0 -0.00202655)
(0.00673292 0 -0.0020192)
(0.00744547 0 -0.00197578)
(0.00813657 0 -0.00189761)
(0.00879389 0 -0.00178785)
(0.0094067 0 -0.00165115)
(0.00996627 0 -0.00149322)
(0.0104662 0 -0.00132035)
(0.0109025 0 -0.0011389)
(0.0112733 0 -0.000954924)
(0.0115791 0 -0.000773865)
(0.011822 0 -0.000600332)
(0.0120054 0 -0.000437989)
(0.0121339 0 -0.000289527)
(0.0122131 0 -0.000156681)
(0.0122485 0 -4.03198e-05)
(0.0122463 0 5.93705e-05)
(0.0122121 0 0.000142743)
(0.0121517 0 0.00021058)
(0.0120702 0 0.000263982)
(0.0119727 0 0.000304271)
(0.0118633 0 0.000332895)
(0.0117459 0 0.000351356)
(0.0116237 0 0.000361142)
(0.0114995 0 0.000363677)
(0.0113756 0 0.000360292)
(0.0112537 0 0.000352197)
(0.0111353 0 0.000340466)
(0.0110215 0 0.000326039)
(0.010913 0 0.000309718)
(0.0108104 0 0.000292176)
(0.0107139 0 0.000273969)
(0.0106237 0 0.000255544)
(0.0105398 0 0.000237255)
(0.0104621 0 0.000219372)
(0.0103905 0 0.000202097)
(0.0103246 0 0.000185576)
(0.0102642 0 0.000169903)
(0.010209 0 0.000155136)
(0.0101587 0 0.000141303)
(0.0101129 0 0.000128406)
(0.0100713 0 0.000116429)
(0.0100337 0 0.000105344)
(0.00999966 0 9.51105e-05)
(0.00996898 0 8.5684e-05)
(0.00994138 0 7.70139e-05)
(0.00991659 0 6.90477e-05)
(0.0098944 0 6.17319e-05)
(0.00987459 0 5.5013e-05)
(0.00985696 0 4.88384e-05)
(0.00984134 0 4.31569e-05)
(0.00982758 0 3.79191e-05)
(0.00981551 0 3.30773e-05)
(0.00980503 0 2.85861e-05)
(0.00979602 0 2.44019e-05)
(0.00978839 0 2.04831e-05)
(0.00978204 0 1.67897e-05)
(0.00977691 0 1.32834e-05)
(0.00977294 0 9.92726e-06)
(0.00977008 0 6.68525e-06)
(0.00976831 0 3.52233e-06)
(0.0097676 0 4.0406e-07)
(0.00976795 0 -2.7037e-06)
(0.00976934 0 -5.83503e-06)
(0.0097718 0 -9.02423e-06)
(0.00977536 0 -1.23062e-05)
(0.00978004 0 -1.57173e-05)
(0.0097859 0 -1.92961e-05)
(0.009793 0 -2.30835e-05)
(0.00980141 0 -2.71237e-05)
(0.00981124 0 -3.1464e-05)
(0.00982259 0 -3.6156e-05)
(0.00983558 0 -4.12559e-05)
(0.00985036 0 -4.68256e-05)
(0.0098671 0 -5.29334e-05)
(0.00988599 0 -5.96554e-05)
(0.00990724 0 -6.70764e-05)
(0.00993111 0 -7.52918e-05)
(0.00995787 0 -8.44089e-05)
(0.00998785 0 -9.45493e-05)
(0.0100214 0 -0.000105851)
(0.0100589 0 -0.000118472)
(0.0101009 0 -0.000132592)
(0.0101478 0 -0.000148419)
(0.0102003 0 -0.000166193)
(0.010259 0 -0.000186191)
(0.0103247 0 -0.000208736)
(0.0103983 0 -0.000234206)
(0.0104807 0 -0.000263046)
(0.0105732 0 -0.00029578)
(0.0106771 0 -0.000333029)
(0.0107938 0 -0.000375536)
(0.0109252 0 -0.000424193)
(0.0110734 0 -0.000480075)
(0.0112406 0 -0.000544493)
(0.0114298 0 -0.00061905)
(0.0116443 0 -0.000705727)
(0.011888 0 -0.000806993)
(0.0121657 0 -0.000925952)
(0.012483 0 -0.00106656)
(0.0128468 0 -0.00123392)
(0.0132656 0 -0.00143474)
(0.01375 0 -0.00167801)
(0.0143134 0 -0.00197612)
(0.014973 0 -0.00234673)
(0.0157511 0 -0.00281601)
(0.0166774 0 -0.00342448)
(0.0177898 0 -0.00423761)
(0.0191338 0 -0.0053648)
(0.0207537 0 -0.00699081)
(0.0226641 0 -0.00942308)
(0.0247704 0 -0.0131603)
(0.0266016 0 -0.0189539)
(0.0266456 0 -0.0275293)
(0.0222901 0 -0.0377893)
(0.0130868 0 -0.044653)
(0.00149806 0 -0.0454688)
(-0.00851902 0 -0.039288)
(-0.0131574 0 -0.0288281)
(-0.0130964 0 -0.0198512)
(-0.0110932 0 -0.0137005)
(-0.00877252 0 -0.00970604)
(-0.00665665 0 -0.00710967)
(-0.00486025 0 -0.00538322)
(-0.00337309 0 -0.00418472)
(-0.00214062 0 -0.00330007)
(-0.00110812 0 -0.00259882)
(-0.000516752 0 -0.00200355)
(0.000148364 0 -0.000757701)
(0.000315805 0 -0.000956465)
(0.000608076 0 -0.00115796)
(0.000946215 0 -0.00136292)
(0.00133611 0 -0.00157098)
(0.00178398 0 -0.00178008)
(0.00229212 0 -0.00198638)
(0.0028606 0 -0.00218425)
(0.00348737 0 -0.0023665)
(0.00416767 0 -0.002525)
(0.00489373 0 -0.00265141)
(0.0056549 0 -0.00273811)
(0.00643805 0 -0.00277905)
(0.00722834 0 -0.00277055)
(0.00801013 0 -0.00271168)
(0.00876805 0 -0.00260437)
(0.0094879 0 -0.00245317)
(0.0101575 0 -0.00226472)
(0.0107671 0 -0.00204709)
(0.0113097 0 -0.00180911)
(0.0117812 0 -0.00155964)
(0.0121801 0 -0.00130706)
(0.0125071 0 -0.00105884)
(0.012765 0 -0.000821242)
(0.012958 0 -0.000599235)
(0.0130916 0 -0.000396426)
(0.0131719 0 -0.000215134)
(0.0132054 0 -5.65038e-05)
(0.0131986 0 7.92574e-05)
(0.0131581 0 0.000192677)
(0.0130899 0 0.000284861)
(0.0129999 0 0.000357345)
(0.0128933 0 0.000411959)
(0.0127746 0 0.000450698)
(0.0126479 0 0.000475621)
(0.0125166 0 0.000488767)
(0.0123837 0 0.000492083)
(0.0122515 0 0.000487382)
(0.0121219 0 0.000476311)
(0.0119963 0 0.000460331)
(0.0118758 0 0.000440717)
(0.0117612 0 0.000418557)
(0.011653 0 0.000394764)
(0.0115514 0 0.000370087)
(0.0114566 0 0.000345131)
(0.0113685 0 0.000320372)
(0.0112871 0 0.000296176)
(0.011212 0 0.000272814)
(0.0111431 0 0.000250479)
(0.0110799 0 0.000229298)
(0.0110223 0 0.000209349)
(0.0109697 0 0.000190666)
(0.010922 0 0.000173252)
(0.0108786 0 0.000157084)
(0.0108394 0 0.000142123)
(0.010804 0 0.000128314)
(0.010772 0 0.000115596)
(0.0107433 0 0.0001039)
(0.0107175 0 9.31544e-05)
(0.0106944 0 8.32873e-05)
(0.0106738 0 7.42261e-05)
(0.0106554 0 6.58995e-05)
(0.0106391 0 5.82383e-05)
(0.0106248 0 5.11756e-05)
(0.0106123 0 4.46474e-05)
(0.0106013 0 3.85922e-05)
(0.010592 0 3.29513e-05)
(0.010584 0 2.76685e-05)
(0.0105774 0 2.26901e-05)
(0.010572 0 1.79643e-05)
(0.0105679 0 1.34415e-05)
(0.0105649 0 9.07315e-06)
(0.010563 0 4.81221e-06)
(0.0105622 0 6.12239e-07)
(0.0105625 0 -3.57269e-06)
(0.0105639 0 -7.78848e-06)
(0.0105664 0 -1.20814e-05)
(0.01057 0 -1.64985e-05)
(0.0105748 0 -2.10887e-05)
(0.0105808 0 -2.59037e-05)
(0.0105881 0 -3.09986e-05)
(0.0105967 0 -3.64322e-05)
(0.0106068 0 -4.22682e-05)
(0.0106185 0 -4.85754e-05)
(0.0106318 0 -5.54291e-05)
(0.010647 0 -6.29118e-05)
(0.0106642 0 -7.11149e-05)
(0.0106836 0 -8.01396e-05)
(0.0107054 0 -9.00992e-05)
(0.0107299 0 -0.00010112)
(0.0107574 0 -0.000113346)
(0.0107881 0 -0.000126937)
(0.0108225 0 -0.000142078)
(0.0108609 0 -0.000158975)
(0.0109038 0 -0.000177869)
(0.0109518 0 -0.000199032)
(0.0110054 0 -0.00022278)
(0.0110653 0 -0.000249478)
(0.0111322 0 -0.000279549)
(0.0112071 0 -0.000313487)
(0.0112909 0 -0.000351871)
(0.0113847 0 -0.000395382)
(0.0114898 0 -0.000444827)
(0.0116077 0 -0.000501163)
(0.01174 0 -0.000565539)
(0.0118888 0 -0.000639333)
(0.0120563 0 -0.000724218)
(0.012245 0 -0.000822233)
(0.0124581 0 -0.000935887)
(0.0126991 0 -0.00106829)
(0.0129721 0 -0.00122335)
(0.0132822 0 -0.001406)
(0.0136351 0 -0.0016226)
(0.0140379 0 -0.00188145)
(0.014499 0 -0.00219361)
(0.0150284 0 -0.0025741)
(0.0156383 0 -0.00304391)
(0.0163428 0 -0.0036331)
(0.0171576 0 -0.00438584)
(0.0180972 0 -0.00536829)
(0.0191689 0 -0.00668038)
(0.0203555 0 -0.00847115)
(0.0215827 0 -0.0109539)
(0.0226531 0 -0.0144092)
(0.0231109 0 -0.0191346)
(0.0220333 0 -0.0251873)
(0.0181931 0 -0.0316239)
(0.0114897 0 -0.0359336)
(0.003409 0 -0.0364842)
(-0.00383743 0 -0.0327404)
(-0.00790418 0 -0.0263402)
(-0.00902722 0 -0.0200822)
(-0.00847196 0 -0.0151073)
(-0.00722646 0 -0.0114375)
(-0.00579581 0 -0.00879348)
(-0.00440802 0 -0.00688358)
(-0.00315265 0 -0.00547182)
(-0.00204465 0 -0.00438498)
(-0.00107373 0 -0.00350377)
(-0.000505495 0 -0.00274881)
(0.000148116 0 -0.000970428)
(0.000315375 0 -0.00121743)
(0.000608152 0 -0.00147008)
(0.000949029 0 -0.00173004)
(0.00134563 0 -0.00199693)
(0.0018059 0 -0.00226803)
(0.00233375 0 -0.00253809)
(0.00293055 0 -0.00279928)
(0.00359502 0 -0.00304164)
(0.00432246 0 -0.00325383)
(0.00510439 0 -0.00342423)
(0.00592864 0 -0.0035422)
(0.00677988 0 -0.00359937)
(0.0076406 0 -0.00359065)
(0.00849236 0 -0.00351485)
(0.00931713 0 -0.00337472)
(0.0100985 0 -0.0031766)
(0.0108225 0 -0.0029296)
(0.0114783 0 -0.00264473)
(0.0120586 0 -0.0023338)
(0.0125593 0 -0.00200862)
(0.0129792 0 -0.0016802)
(0.01332 0 -0.00135825)
(0.0135854 0 -0.00105086)
(0.0137806 0 -0.000764324)
(0.0139121 0 -0.000503168)
(0.0139869 0 -0.000270237)
(0.0140124 0 -6.68855e-05)
(0.0139959 0 0.000106735)
(0.0139446 0 0.000251413)
(0.0138651 0 0.000368669)
(0.0137637 0 0.000460562)
(0.0136458 0 0.000529511)
(0.0135164 0 0.000578135)
(0.0133797 0 0.000609118)
(0.0132391 0 0.000625102)
(0.0130977 0 0.000628602)
(0.0129579 0 0.000621951)
(0.0128214 0 0.000607259)
(0.0126897 0 0.000586397)
(0.0125638 0 0.000560988)
(0.0124445 0 0.000532417)
(0.0123321 0 0.000501839)
(0.012227 0 0.000470204)
(0.0121291 0 0.000438272)
(0.0120384 0 0.000406644)
(0.0119546 0 0.000375775)
(0.0118776 0 0.000346004)
(0.0118069 0 0.00031757)
(0.0117423 0 0.00029063)
(0.0116833 0 0.000265275)
(0.0116297 0 0.000241545)
(0.011581 0 0.00021944)
(0.0115368 0 0.000198928)
(0.0114969 0 0.000179955)
(0.0114608 0 0.000162452)
(0.0114283 0 0.000146337)
(0.0113991 0 0.000131521)
(0.0113729 0 0.000117914)
(0.0113494 0 0.000105422)
(0.0113285 0 9.39528e-05)
(0.0113099 0 8.34156e-05)
(0.0112934 0 7.37222e-05)
(0.0112788 0 6.47876e-05)
(0.0112661 0 5.65304e-05)
(0.011255 0 4.88725e-05)
(0.0112455 0 4.17397e-05)
(0.0112374 0 3.50607e-05)
(0.0112306 0 2.87676e-05)
(0.0112251 0 2.27951e-05)
(0.0112209 0 1.70803e-05)
(0.0112178 0 1.1562e-05)
(0.0112159 0 6.18075e-06)
(0.011215 0 8.78021e-07)
(0.0112153 0 -4.40419e-06)
(0.0112166 0 -9.72384e-06)
(0.0112191 0 -1.51394e-05)
(0.0112227 0 -2.07103e-05)
(0.0112274 0 -2.64982e-05)
(0.0112334 0 -3.25682e-05)
(0.0112406 0 -3.89895e-05)
(0.0112492 0 -4.58358e-05)
(0.0112593 0 -5.3187e-05)
(0.0112709 0 -6.11291e-05)
(0.0112842 0 -6.97565e-05)
(0.0112994 0 -7.91722e-05)
(0.0113165 0 -8.94903e-05)
(0.0113358 0 -0.000100837)
(0.0113576 0 -0.000113354)
(0.011382 0 -0.000127198)
(0.0114093 0 -0.000142547)
(0.0114399 0 -0.000159601)
(0.0114741 0 -0.000178586)
(0.0115123 0 -0.000199761)
(0.0115549 0 -0.000223419)
(0.0116025 0 -0.000249898)
(0.0116555 0 -0.000279584)
(0.0117148 0 -0.000312923)
(0.0117809 0 -0.000350433)
(0.0118547 0 -0.000392715)
(0.0119371 0 -0.00044047)
(0.0120292 0 -0.000494522)
(0.0121322 0 -0.00055584)
(0.0122474 0 -0.000625574)
(0.0123762 0 -0.000705091)
(0.0125206 0 -0.000796029)
(0.0126824 0 -0.00090036)
(0.012864 0 -0.00102048)
(0.0130679 0 -0.00115931)
(0.013297 0 -0.00132045)
(0.0135549 0 -0.0015084)
(0.0138454 0 -0.00172877)
(0.0141728 0 -0.00198873)
(0.0145423 0 -0.0022975)
(0.0149594 0 -0.00266716)
(0.0154301 0 -0.00311376)
(0.0159607 0 -0.00365897)
(0.0165563 0 -0.00433253)
(0.0172195 0 -0.00517563)
(0.017946 0 -0.0062455)
(0.018716 0 -0.0076206)
(0.0194799 0 -0.00940459)
(0.0201324 0 -0.0117236)
(0.0204739 0 -0.014706)
(0.0201563 0 -0.0184203)
(0.0186423 0 -0.0227151)
(0.015374 0 -0.026906)
(0.0104038 0 -0.0296633)
(0.00462898 0 -0.0300336)
(-0.000638944 0 -0.0277699)
(-0.00410516 0 -0.0237201)
(-0.00567679 0 -0.0193654)
(-0.00594254 0 -0.0155109)
(-0.00546713 0 -0.0123779)
(-0.00463456 0 -0.00992446)
(-0.00367387 0 -0.00802276)
(-0.00270961 0 -0.00653308)
(-0.001796 0 -0.00533271)
(-0.000955566 0 -0.00432556)
(-0.000453608 0 -0.00343853)
(0.000141112 0 -0.00117838)
(0.000301193 0 -0.00147345)
(0.000583225 0 -0.00177862)
(0.000915835 0 -0.00209681)
(0.00130883 0 -0.00242772)
(0.00177227 0 -0.00276794)
(0.00231218 0 -0.00311053)
(0.00293163 0 -0.00344501)
(0.00363042 0 -0.00375796)
(0.00440402 0 -0.00403399)
(0.00524308 0 -0.00425728)
(0.00613346 0 -0.00441332)
(0.00705697 0 -0.00449076)
(0.00799266 0 -0.00448279)
(0.00891849 0 -0.00438795)
(0.00981309 0 -0.00421017)
(0.0106573 0 -0.00395814)
(0.0114352 0 -0.00364416)
(0.0121349 0 -0.00328282)
(0.0127486 0 -0.00288962)
(0.0132727 0 -0.00247981)
(0.0137069 0 -0.00206741)
(0.0140538 0 -0.00166465)
(0.0143186 0 -0.00128152)
(0.0145078 0 -0.000925675)
(0.0146292 0 -0.000602501)
(0.0146911 0 -0.000315259)
(0.0147018 0 -6.53896e-05)
(0.0146696 0 0.000147136)
(0.0146022 0 0.000323495)
(0.014507 0 0.00046575)
(0.0143906 0 0.000576602)
(0.0142587 0 0.000659168)
(0.0141166 0 0.00071678)
(0.0139684 0 0.000752823)
(0.0138177 0 0.000770604)
(0.0136675 0 0.000773252)
(0.0135201 0 0.000763653)
(0.0133772 0 0.000744405)
(0.0132401 0 0.0007178)
(0.0131098 0 0.00068582)
(0.0129868 0 0.000650144)
(0.0128715 0 0.000612173)
(0.012764 0 0.00057305)
(0.0126643 0 0.000533688)
(0.0125721 0 0.0004948)
(0.0124873 0 0.000456929)
(0.0124094 0 0.000420473)
(0.0123382 0 0.000385708)
(0.0122732 0 0.000352816)
(0.012214 0 0.000321896)
(0.0121602 0 0.000292989)
(0.0121114 0 0.000266087)
(0.0120673 0 0.000241144)
(0.0120274 0 0.00021809)
(0.0119914 0 0.000196835)
(0.0119591 0 0.000177277)
(0.01193 0 0.000159306)
(0.0119039 0 0.000142808)
(0.0118805 0 0.000127669)
(0.0118597 0 0.000113774)
(0.0118412 0 0.000101012)
(0.0118248 0 8.9276e-05)
(0.0118103 0 7.84615e-05)
(0.0117977 0 6.84694e-05)
(0.0117866 0 5.92049e-05)
(0.0117772 0 5.05777e-05)
(0.0117691 0 4.25014e-05)
(0.0117624 0 3.48937e-05)
(0.0117569 0 2.76755e-05)
(0.0117527 0 2.07707e-05)
(0.0117496 0 1.41055e-05)
(0.0117476 0 7.60802e-06)
(0.0117467 0 1.20761e-06)
(0.0117468 0 -5.16573e-06)
(0.0117481 0 -1.15819e-05)
(0.0117504 0 -1.81115e-05)
(0.0117539 0 -2.48265e-05)
(0.0117585 0 -3.1801e-05)
(0.0117643 0 -3.91133e-05)
(0.0117713 0 -4.68463e-05)
(0.0117796 0 -5.50886e-05)
(0.0117894 0 -6.39355e-05)
(0.0118007 0 -7.34901e-05)
(0.0118136 0 -8.38647e-05)
(0.0118284 0 -9.51827e-05)
(0.011845 0 -0.00010758)
(0.0118638 0 -0.000121206)
(0.0118849 0 -0.00013623)
(0.0119086 0 -0.000152837)
(0.0119352 0 -0.000171239)
(0.0119648 0 -0.000191671)
(0.0119979 0 -0.000214401)
(0.0120349 0 -0.000239732)
(0.0120761 0 -0.000268011)
(0.012122 0 -0.00029963)
(0.0121731 0 -0.000335042)
(0.0122302 0 -0.000374767)
(0.0122937 0 -0.000419403)
(0.0123644 0 -0.000469647)
(0.0124433 0 -0.000526306)
(0.0125311 0 -0.000590323)
(0.012629 0 -0.000662806)
(0.0127382 0 -0.000745056)
(0.0128599 0 -0.000838619)
(0.0129956 0 -0.000945329)
(0.013147 0 -0.00106738)
(0.013316 0 -0.00120743)
(0.0135045 0 -0.00136868)
(0.0137148 0 -0.00155503)
(0.0139494 0 -0.0017713)
(0.014211 0 -0.00202347)
(0.0145024 0 -0.00231901)
(0.0148265 0 -0.00266738)
(0.0151859 0 -0.00308065)
(0.0155827 0 -0.00357443)
(0.0160177 0 -0.00416898)
(0.0164888 0 -0.0048908)
(0.0169886 0 -0.0057744)
(0.0175003 0 -0.00686412)
(0.0179906 0 -0.00821505)
(0.0183988 0 -0.00989088)
(0.0186211 0 -0.0119547)
(0.0184934 0 -0.0144457)
(0.0177761 0 -0.0173316)
(0.0161682 0 -0.0204205)
(0.0134286 0 -0.0232408)
(0.00966019 0 -0.0250586)
(0.0054153 0 -0.0253286)
(0.00149007 0 -0.023936)
(-0.00141106 0 -0.0213068)
(-0.00306953 0 -0.0182589)
(-0.00375749 0 -0.0153247)
(-0.00378461 0 -0.0127481)
(-0.00341197 0 -0.0105872)
(-0.00282751 0 -0.00880762)
(-0.0021537 0 -0.0073378)
(-0.00145955 0 -0.00609809)
(-0.000786237 0 -0.00501617)
(-0.000376005 0 -0.00402798)
(0.000127444 0 -0.00137222)
(0.000273293 0 -0.0017139)
(0.000533215 0 -0.00207253)
(0.000846507 0 -0.00245246)
(0.00122572 0 -0.00285351)
(0.00168355 0 -0.00327144)
(0.00222868 0 -0.00369731)
(0.00286643 0 -0.00411743)
(0.00359802 0 -0.00451404)
(0.00441921 0 -0.00486661)
(0.00531955 0 -0.00515388)
(0.00628235 0 -0.00535637)
(0.00728568 0 -0.00545889)
(0.00830412 0 -0.00545248)
(0.00931104 0 -0.00533555)
(0.0102809 0 -0.00511369)
(0.0111911 0 -0.00479876)
(0.0120237 0 -0.00440719)
(0.0127655 0 -0.0039581)
(0.0134088 0 -0.00347147)
(0.0139504 0 -0.00296663)
(0.0143915 0 -0.00246107)
(0.0147364 0 -0.00196974)
(0.0149919 0 -0.00150466)
(0.0151664 0 -0.00107482)
(0.0152692 0 -0.000686325)
(0.0153101 0 -0.000342674)
(0.0152985 0 -4.52168e-05)
(0.0152439 0 0.000206435)
(0.0151548 0 0.000414027)
(0.015039 0 0.000580331)
(0.0149036 0 0.000708844)
(0.0147547 0 0.000803513)
(0.0145975 0 0.000868492)
(0.0144362 0 0.000907954)
(0.0142744 0 0.000925935)
(0.0141149 0 0.000926225)
(0.0139598 0 0.000912293)
(0.0138107 0 0.000887242)
(0.0136687 0 0.000853792)
(0.0135347 0 0.000814281)
(0.013409 0 0.000770682)
(0.0132917 0 0.000724626)
(0.0131829 0 0.000677439)
(0.0130824 0 0.000630173)
(0.0129899 0 0.000583644)
(0.0129051 0 0.000538467)
(0.0128275 0 0.000495087)
(0.0127567 0 0.00045381)
(0.0126923 0 0.000414829)
(0.0126337 0 0.000378247)
(0.0125807 0 0.000344095)
(0.0125326 0 0.000312352)
(0.0124893 0 0.000282954)
(0.0124501 0 0.00025581)
(0.0124149 0 0.000230807)
(0.0123832 0 0.000207818)
(0.0123547 0 0.000186709)
(0.0123292 0 0.000167343)
(0.0123064 0 0.000149582)
(0.0122861 0 0.000133289)
(0.012268 0 0.000118331)
(0.0122521 0 0.000104582)
(0.012238 0 9.19165e-05)
(0.0122256 0 8.02188e-05)
(0.0122149 0 6.93767e-05)
(0.0122056 0 5.92836e-05)
(0.0121977 0 4.98382e-05)
(0.0121912 0 4.09438e-05)
(0.0121858 0 3.25077e-05)
(0.0121817 0 2.44408e-05)
(0.0121786 0 1.66569e-05)
(0.0121766 0 9.07194e-06)
(0.0121756 0 1.60344e-06)
(0.0121757 0 -5.83027e-06)
(0.0121769 0 -1.33108e-05)
(0.012179 0 -2.09204e-05)
(0.0121822 0 -2.87431e-05)
(0.0121866 0 -3.68654e-05)
(0.012192 0 -4.5378e-05)
(0.0121987 0 -5.43771e-05)
(0.0122066 0 -6.39652e-05)
(0.0122159 0 -7.42525e-05)
(0.0122266 0 -8.5358e-05)
(0.0122389 0 -9.74112e-05)
(0.0122528 0 -0.000110554)
(0.0122687 0 -0.000124943)
(0.0122865 0 -0.00014075)
(0.0123065 0 -0.000158167)
(0.012329 0 -0.000177409)
(0.0123541 0 -0.000198715)
(0.0123821 0 -0.000222355)
(0.0124134 0 -0.000248633)
(0.0124483 0 -0.000277893)
(0.0124871 0 -0.000310525)
(0.0125303 0 -0.000346974)
(0.0125784 0 -0.000387748)
(0.0126318 0 -0.000433429)
(0.0126913 0 -0.000484686)
(0.0127573 0 -0.000542291)
(0.0128307 0 -0.000607137)
(0.0129122 0 -0.000680262)
(0.0130027 0 -0.000762877)
(0.0131033 0 -0.0008564)
(0.0132148 0 -0.000962498)
(0.0133387 0 -0.00108314)
(0.013476 0 -0.00122067)
(0.0136281 0 -0.00137786)
(0.0137966 0 -0.00155807)
(0.0139829 0 -0.00176534)
(0.0141885 0 -0.00200455)
(0.014415 0 -0.00228168)
(0.0146635 0 -0.0026041)
(0.014935 0 -0.00298088)
(0.0152295 0 -0.00342331)
(0.0155457 0 -0.00394549)
(0.0158802 0 -0.00456496)
(0.0162256 0 -0.0053035)
(0.0165686 0 -0.00618767)
(0.0168863 0 -0.00724883)