/*--------------------------------*- C++ -*----------------------------------*\
  =========                 |
  \\      /  F ield         | OpenFOAM: The Open Source CFD Toolbox
   \\    /   O peration     | Website:  https://openfoam.org
    \\  /    A nd           | Version:  13
     \\/     M anipulation  |
\*---------------------------------------------------------------------------*/
FoamFile
{
    format      ascii;
    class       volScalarField;
    location    "524.831886";
    object      T;
}
// * * * * * * * * * * * * * * * * * * * * * * * * * * * * * * * * * * * * * //

dimensions      [0 0 0 1 0 0 0];

internalField   nonuniform List<scalar> 
5712
(
321.022
321.072
321.154
321.231
321.349
321.427
321.614
321.678
321.555
321.63
321.346
321.422
321.193
321.263
321.076
321.129
321.414
321.516
321.549
321.689
321.738
321.867
321.862
322.028
320.857
320.582
320.91
320.653
320.982
320.719
321.065
320.816
321.27
321.117
321.411
321.217
320.888
321.049
321.714
321.96
321.852
322.037
322.01
322.22
322.173
322.333
321.436
321.69
321.583
321.777
321.211
321.458
320.268
320.078
320.398
320.2
320.406
320.167
320.561
320.34
320.607
320.284
320.849
320.548
321.039
320.74
321.259
320.954
321.496
321.542
321.709
321.733
321.924
321.981
322.097
322.153
321.334
321.285
321.087
321.083
321.89
321.892
322.055
322.025
322.253
322.299
322.4
322.423
321.538
321.453
321.721
321.59
320.965
320.604
320.839
320.438
320.701
320.333
320.63
320.214
321.185
320.832
321.012
320.617
321.382
321.032
321.15
320.76
319.819
319.409
319.751
319.346
319.946
319.562
319.822
319.434
320.16
319.862
319.942
319.622
321.197
321.7
320.74
320.397
320.023
321.622
321.091
320.545
320.178
319.779
321.764
321.291
320.833
320.4
319.976
319.03
318.835
318.832
318.66
319.22
318.998
318.962
318.776
319.555
319.304
319.185
318.965
321.495
321.284
320.915
320.635
320.38
320.091
319.956
319.672
319.4
319.121
321.668
321.497
321.139
320.849
320.643
320.316
320.152
319.802
319.536
319.172
321.401
321.079
321.635
321.349
321.922
321.816
322.133
322.066
321.107
320.735
320.879
320.483
321.834
321.547
321.964
321.691
322.304
322.24
322.428
322.377
321.314
320.935
321.445
321.076
320.509
320.066
319.773
319.244
320.324
319.857
319.646
319.125
320.678
320.25
319.892
319.373
320.838
320.405
320.058
319.565
318.76
318.662
318.5
318.727
318.675
318.525
318.883
318.765
318.592
318.82
318.759
318.597
319.135
318.983
318.79
318.962
318.877
318.695
321.026
320.734
320.426
320.333
320.075
319.803
319.812
319.587
319.347
319.44
319.248
319.019
319.077
318.963
318.75
321.255
320.925
320.575
320.459
320.117
319.773
319.921
319.615
319.306
319.487
319.25
318.976
319.087
318.942
318.695
322.311
322.417
322.407
322.543
322.052
322.182
322.161
322.323
322.347
322.552
322.374
322.564
322.413
322.595
322.46
322.63
322.612
322.52
322.673
322.564
322.64
322.716
322.652
322.778
322.453
322.592
322.676
322.798
322.762
322.877
322.762
322.882
322.76
322.944
322.726
322.896
322.791
322.979
322.785
322.956
322.823
323.026
322.878
323.06
322.919
323.077
323.021
323.147
322.552
322.642
322.677
322.777
322.28
322.358
322.425
322.509
322.852
322.971
322.741
322.852
322.799
322.894
322.92
322.997
322.562
322.639
322.694
322.753
322.96
323.075
323.071
323.167
322.998
323.153
323.097
323.185
322.908
323.077
322.992
323.097
323.087
323.221
323.189
323.261
323.184
323.294
323.269
323.327
322.743
322.643
322.92
322.819
322.749
322.643
322.935
322.83
322.758
322.664
322.959
322.865
322.453
322.129
322.656
322.817
322.988
322.057
322.377
322.563
322.722
322.905
322.195
322.511
322.737
322.89
323.01
322.476
322.249
322.65
322.43
322.492
322.275
322.678
322.466
322.53
322.324
322.732
322.534
321.961
321.783
322.3
322.119
322.492
322.307
322.642
322.453
322.815
322.628
322.133
322.024
322.457
322.347
322.677
322.548
322.818
322.662
322.923
322.734
322.654
322.606
322.792
322.78
322.36
322.321
322.524
322.53
322.963
322.906
322.844
322.757
322.9
322.914
323.001
323.026
322.653
322.685
322.766
322.811
323.06
323.027
323.152
323.127
323.065
322.96
323.107
322.95
322.957
322.825
323.022
322.845
323.155
323.073
323.18
323.042
323.231
323.158
323.247
323.126
321.943
321.639
321.354
322.053
321.709
321.423
321.986
321.678
321.387
322.104
321.758
321.459
322.052
321.75
321.453
322.188
321.825
321.505
321.546
321.254
320.94
321.875
321.572
321.251
322.059
321.742
321.415
322.191
321.873
321.555
322.279
321.896
321.547
321.83
321.511
321.154
322.144
321.817
321.457
322.317
321.971
321.6
322.392
322.028
321.653
322.367
321.965
321.581
323.013
322.873
322.523
321.891
322.955
322.805
322.444
321.808
323.039
322.893
322.541
321.903
323.002
322.842
322.477
321.838
323.073
322.918
322.581
321.961
323.088
322.916
322.556
321.923
323.079
322.888
322.502
321.854
323.118
322.905
322.503
321.851
323.153
322.969
322.616
321.988
323.141
322.945
322.621
322.055
323.096
322.931
322.612
322.029
323.078
322.901
322.6
322.067
323.199
322.998
322.617
321.965
323.196
322.984
322.64
322.06
323.247
323.027
322.633
321.984
323.245
323.017
322.663
322.085
323.002
322.876
322.557
321.962
322.919
322.812
322.539
322.019
323.009
322.88
322.565
321.973
322.923
322.811
322.539
322.024
323.02
322.882
322.577
322.003
322.941
322.817
322.545
322.035
323.023
322.875
322.584
322.043
322.957
322.822
322.552
322.057
323.016
322.856
322.578
322.081
322.792
322.701
322.455
322.081
322.65
322.569
322.318
321.966
322.808
322.71
322.462
322.088
322.666
322.578
322.323
321.969
322.837
322.725
322.471
322.095
322.696
322.592
322.33
321.976
322.879
322.749
322.488
322.11
322.735
322.612
322.342
321.985
322.934
322.779
322.509
322.126
322.782
322.635
322.355
321.994
323.038
322.839
322.538
322.14
322.9
322.704
322.399
322.023
322.987
322.809
322.523
322.132
322.841
322.669
322.377
322.009
323.085
322.866
322.553
322.147
322.955
322.737
322.419
322.039
323.129
322.895
322.572
322.163
323.005
322.769
322.44
322.056
320.942
320.182
319.538
319.018
318.62
320.894
320.143
319.502
318.982
318.585
320.948
320.185
319.54
319.019
318.621
320.903
320.149
319.506
318.986
318.589
320.959
320.19
319.543
319.022
318.624
320.938
320.178
319.533
319.012
318.614
320.919
320.159
319.513
318.991
318.593
320.931
320.168
319.52
318.997
318.598
320.966
320.194
319.546
319.023
318.625
320.927
320.138
319.488
318.967
318.569
320.957
320.18
319.532
319.01
318.612
320.914
320.125
319.476
318.955
318.558
320.967
320.194
319.545
319.022
318.623
320.923
320.132
319.482
318.96
318.562
320.98
320.202
319.551
319.027
318.627
320.926
320.132
319.48
318.957
318.558
320.937
320.164
319.519
318.999
318.602
320.879
320.097
319.452
318.933
318.537
320.938
320.163
319.517
318.997
318.599
320.881
320.097
319.451
318.932
318.536
320.937
320.157
319.51
318.989
318.592
320.881
320.094
319.448
318.928
318.532
320.92
320.133
319.485
318.964
318.567
320.871
320.082
319.435
318.916
318.52
320.886
320.097
319.449
318.929
318.533
317.997
317.881
318.051
317.933
318.151
318.02
318.28
318.125
318.41
318.229
318.62
318.413
318.514
318.31
318.723
318.524
318.829
318.649
316.77
315.442
314.338
313.486
312.91
316.789
315.452
314.335
313.478
312.893
316.795
315.456
314.346
313.492
312.915
316.811
315.462
314.343
313.481
312.897
316.845
315.483
314.364
313.505
312.926
316.859
315.489
314.36
313.493
312.907
316.913
315.523
314.39
313.524
312.942
316.922
315.525
314.384
313.511
312.922
316.993
315.574
314.425
313.55
312.964
316.989
315.568
314.413
313.533
312.94
317.166
315.699
314.516
313.621
313.026
317.147
315.681
314.496
313.598
312.998
317.079
315.635
314.468
313.583
312.992
317.064
315.62
314.45
313.561
312.965
317.251
315.764
314.566
313.661
313.061
317.239
315.751
314.55
313.641
313.037
317.338
315.831
314.618
313.703
313.098
317.338
315.825
314.608
313.689
313.077
322.637
322.454
322.28
322.489
322.18
322.211
322.224
322.267
322.166
322.225
321.92
321.987
321.784
321.859
321.968
322.032
322.038
322.082
322.048
322.083
322.464
322.495
321.842
321.594
321.526
321.498
321.722
321.917
321.644
321.938
321.403
321.051
321.851
321.767
321.49
321.769
321.654
321.622
322.136
322.127
321.957
322.003
322.083
322.133
322.054
321.966
321.659
321.71
321.838
321.89
322.364
322.415
322.295
322.332
322.234
322.23
322.036
321.821
322.046
322.808
322.981
323.05
323.033
322.927
322.754
322.899
322.959
322.927
322.791
322.019
322.1
322.107
322.034
321.877
321.765
321.839
321.839
321.761
321.604
321.699
321.776
321.779
321.704
321.549
321.667
321.741
321.741
321.664
321.507
321.897
321.976
321.981
321.907
321.75
322.291
322.515
322.629
322.646
322.57
322.042
322.283
322.404
322.422
322.334
322.208
322.378
322.465
322.452
322.329
321.77
322.001
322.112
322.12
322.012
321.407
321.643
321.755
321.763
321.656
322.067
322.19
322.236
322.193
322.052
322.015
322.169
322.242
322.219
322.089
321.73
321.878
321.946
321.92
321.789
321.97
322.079
322.112
322.059
321.915
321.867
321.988
322.032
321.989
321.849
321.819
321.924
321.954
321.9
321.755
322.48
322.67
322.764
322.766
322.674
322.367
322.51
322.574
322.545
322.412
322.163
322.275
322.312
322.261
322.116
322.2
322.303
322.33
322.273
322.124
322.295
322.413
322.455
322.408
322.265
322.334
322.441
322.471
322.415
322.267
322.242
322.335
322.351
322.285
322.132
322.152
322.244
322.26
322.194
322.041
321.843
321.932
321.948
321.882
321.731
321.889
321.973
321.982
321.911
321.757
322.031
322.13
322.155
322.095
321.946
322.077
322.17
322.188
322.123
321.972
322.699
322.876
322.953
322.941
322.842
322.659
322.797
322.853
322.817
322.679
322.575
322.734
322.808
322.791
322.678
322.551
322.672
322.715
322.669
322.526
322.441
322.553
322.588
322.536
322.389
322.465
322.603
322.663
322.631
322.496
322.225
322.32
322.339
322.274
322.122
322.001
322.085
322.095
322.024
321.87
322.24
322.34
322.364
322.305
322.155
322.567
322.455
322.558
322.434
322.813
322.684
322.818
322.704
322.548
322.534
322.429
322.454
322.809
322.801
322.69
322.725
322.305
322.047
322.204
321.957
322.304
322.07
322.186
321.957
322.181
322.286
322.238
322.308
322.106
322
322.284
322.16
322.341
322.205
322.536
322.405
322.613
322.486
322.042
321.909
322.12
321.969
321.855
321.697
321.809
321.6
321.73
321.531
321.827
321.58
321.725
321.506
321.871
321.538
321.8
321.503
321.666
321.362
321.485
321.176
322.452
322.384
322.396
322.319
322.776
322.751
322.716
322.694
322.088
321.899
322.14
321.967
322.306
322.24
322.191
322.141
322.629
322.621
322.522
322.531
321.996
321.817
321.871
321.711
321.765
321.398
321.464
321.054
321.802
321.408
321.523
321.091
321.676
321.325
321.384
320.985
321.544
321.198
321.274
320.883
321.799
321.687
321.568
321.389
321.819
321.727
321.536
321.364
321.855
321.806
321.477
321.335
322.467
322.801
322.14
321.788
321.338
322.812
322.495
322.169
321.799
321.265
322.781
322.423
322.01
321.558
321.092
321.497
321.406
320.908
320.73
321.586
321.495
320.942
320.765
321.719
321.643
320.983
320.805
322.804
322.751
322.466
322.405
322.114
322.052
321.688
321.61
320.926
320.736
322.778
322.722
322.384
322.261
321.935
321.782
321.417
321.235
320.721
320.493
322.286
322.076
322.227
322.011
322.735
322.705
322.683
322.663
321.722
321.42
321.793
321.507
322.174
321.927
322.076
321.813
322.621
322.587
322.533
322.49
321.668
321.33
321.562
321.202
321.12
320.735
320.358
319.878
321.225
320.851
320.501
320.05
321.037
320.639
320.237
319.741
320.959
320.533
320.168
319.681
321.365
321.281
320.83
320.81
321.451
321.359
320.852
320.838
321.579
321.447
320.872
320.851
322.644
322.454
322.29
322.112
321.951
321.797
321.526
321.381
320.829
320.814
322.612
322.407
322.09
321.902
321.63
321.486
321.166
321.092
320.685
320.702
323.217
323.224
323.101
323.149
323.037
323.042
322.915
322.965
323.344
323.43
323.233
323.323
323.34
323.421
323.22
323.308
323.239
323.341
323.256
323.331
323.402
323.305
323.041
322.914
322.858
322.734
323.099
322.954
323.145
323.015
323.168
323.035
323.479
323.503
323.375
323.405
323.479
323.511
323.369
323.411
323.474
323.521
323.391
323.451
323.268
323.34
323.148
323.243
323.253
323.256
323.199
323.217
323.047
323.047
322.989
322.999
323.337
323.362
323.387
323.394
323.12
323.159
323.025
323.086
322.906
322.932
322.807
322.852
323.262
323.311
323.172
323.247
323.433
323.489
323.441
323.465
323.478
323.519
323.467
323.483
323.361
323.434
323.397
323.431
323.276
323.366
323.34
323.384
323.525
323.509
323.542
323.514
323.517
323.499
323.541
323.51
323.499
323.484
323.534
323.506
323.273
323.071
323.404
323.488
323.517
323.069
323.264
323.392
323.475
323.498
323.073
323.273
323.405
323.474
323.484
323.437
323.31
323.429
323.293
323.438
323.32
323.435
323.305
323.438
323.332
323.444
323.324
323.067
323.016
323.261
323.198
323.377
323.299
323.446
323.355
323.449
323.341
323.082
323.057
323.279
323.245
323.399
323.342
323.453
323.37
323.442
323.333
323.28
323.279
323.233
323.252
323.075
323.091
323.019
323.06
323.357
323.334
323.396
323.357
323.162
323.196
323.089
323.118
322.943
322.998
322.862
322.913
323.296
323.283
323.23
323.212
323.412
323.343
323.394
323.284
323.442
323.361
323.423
323.307
323.365
323.302
323.353
323.241
323.304
323.236
323.304
323.19
323.155
323.009
323.096
322.925
323.175
323.019
323.111
322.93
323.194
323.021
323.133
322.923
322.908
322.717
323.08
322.884
323.175
322.978
323.218
323.015
323.148
322.9
322.965
322.745
323.139
322.909
323.212
322.972
323.21
322.96
323.12
322.84
323.402
323.135
322.701
322.011
323.311
323.046
322.609
321.92
323.407
323.141
322.709
322.014
323.32
323.058
322.624
321.937
323.411
323.147
322.736
322.063
323.356
323.098
322.681
322.007
323.258
323.01
322.587
321.912
323.183
322.949
322.534
321.872
323.385
323.127
322.727
322.065
323.339
323.08
322.718
322.126
323.4
323.137
322.754
322.125
323.349
323.085
322.728
322.157
323.347
323.099
322.688
322.017
323.317
323.067
322.701
322.107
323.298
323.062
322.658
322.002
323.286
323.045
322.684
322.101
323.432
323.164
322.753
322.095
323.391
323.125
322.752
322.166
323.426
323.159
322.754
322.1
323.382
323.116
322.746
322.166
323.411
323.145
322.755
322.12
323.37
323.104
322.739
322.167
323.383
323.117
322.749
322.152
323.354
323.087
322.732
322.177
323.344
323.078
322.73
322.186
323.296
323.03
322.678
322.249
323.17
322.905
322.547
322.146
323.296
323.029
322.678
322.251
323.17
322.903
322.546
322.144
323.293
323.026
322.674
322.247
323.167
322.899
322.541
322.142
323.289
323.021
322.673
322.247
323.163
322.893
322.536
322.138
323.282
323.012
322.67
322.248
323.155
322.883
322.528
322.131
323.239
322.975
322.636
322.219
323.124
322.855
322.506
322.109
323.264
322.995
322.654
322.234
323.145
322.872
322.519
322.123
323.207
322.95
322.613
322.198
323.091
322.829
322.484
322.093
323.17
322.923
322.593
322.181
323.05
322.8
322.462
322.074
321.013
320.225
319.565
319.036
318.634
320.962
320.185
319.528
319
318.599
321.013
320.224
319.565
319.036
318.634
320.962
320.185
319.529
319.001
318.601
321.016
320.225
319.565
319.036
318.635
320.987
320.209
319.552
319.024
318.624
320.954
320.18
319.526
319
318.6
320.944
320.176
319.525
319
318.601
321.011
320.221
319.563
319.035
318.634
320.966
320.162
319.503
318.977
318.577
321.009
320.212
319.552
319.023
318.623
320.961
320.153
319.494
318.967
318.567
320.998
320.213
319.557
319.03
318.629
320.95
320.148
319.492
318.966
318.567
320.99
320.209
319.555
319.029
318.63
320.936
320.138
319.483
318.959
318.56
321.011
320.209
319.547
319.017
318.616
320.956
320.142
319.48
318.952
318.552
321.008
320.205
319.543
319.014
318.613
320.954
320.14
319.478
318.951
318.55
321
320.195
319.534
319.005
318.604
320.947
320.133
319.472
318.945
318.545
320.977
320.167
319.506
318.978
318.578
320.93
320.117
319.457
318.93
318.531
320.938
320.128
319.468
318.942
318.543
319.674
319.539
319.655
319.517
319.611
319.471
319.542
319.404
319.43
319.312
319.145
318.991
319.273
319.14
319.033
318.864
318.931
318.759
317.981
316.295
314.963
313.974
313.33
318.018
316.315
314.965
313.97
313.314
317.964
316.283
314.954
313.968
313.325
317.996
316.297
314.956
313.959
313.307
317.928
316.259
314.937
313.955
313.314
317.961
316.274
314.94
313.947
313.297
317.874
316.222
314.911
313.935
313.296
317.911
316.24
314.916
313.929
313.281
317.796
316.169
314.873
313.905
313.271
317.846
316.198
314.885
313.905
313.261
317.607
316.039
314.778
313.831
313.208
317.64
316.06
314.786
313.829
313.198
317.703
316.108
314.829
313.871
313.242
317.752
316.137
314.842
313.872
313.233
317.516
315.97
314.725
313.789
313.173
317.534
315.98
314.727
313.783
313.16
317.426
315.899
314.671
313.746
313.135
317.434
315.9
314.667
313.736
313.118
322.8
322.627
322.764
322.946
323.215
323.102
323.216
323.088
323.036
322.904
323.037
322.923
320.688
320.723
320.811
320.951
321.139
321.367
320.676
320.71
320.794
320.925
321.097
321.3
320.602
320.475
320.642
320.52
320.74
320.631
320.898
320.812
321.11
321.045
321.357
321.287
321.613
321.848
322.052
322.224
322.354
322.448
321.518
321.731
321.924
322.088
322.215
322.304
320.844
320.905
320.894
320.811
320.655
320.879
320.941
320.931
320.848
320.691
320.968
321.031
321.021
320.938
320.782
321.11
321.174
321.165
321.083
320.926
321.301
321.368
321.361
321.279
321.121
321.533
321.603
321.598
321.518
321.36
320.832
320.894
320.883
320.8
320.644
320.866
320.928
320.918
320.835
320.679
320.951
321.014
321.004
320.922
320.765
321.084
321.148
321.14
321.058
320.901
321.259
321.326
321.319
321.238
321.081
321.466
321.536
321.532
321.452
321.295
320.757
320.818
320.807
320.724
320.568
320.629
320.689
320.678
320.596
320.441
320.797
320.859
320.848
320.765
320.609
320.674
320.736
320.725
320.642
320.488
320.897
320.959
320.949
320.866
320.71
320.787
320.849
320.839
320.757
320.601
321.057
321.121
321.112
321.029
320.873
320.97
321.034
321.026
320.944
320.788
321.271
321.338
321.331
321.249
321.092
321.207
321.273
321.267
321.186
321.029
321.522
321.592
321.588
321.508
321.35
321.452
321.523
321.519
321.44
321.283
321.784
321.858
321.859
321.781
321.624
322.025
322.107
322.113
322.04
321.884
322.239
322.33
322.344
322.277
322.123
322.422
322.525
322.551
322.492
322.341
322.566
322.681
322.717
322.665
322.518
322.67
322.791
322.832
322.783
322.638
321.688
321.763
321.763
321.685
321.529
321.907
321.987
321.993
321.919
321.763
322.107
322.195
322.207
322.138
321.983
322.279
322.374
322.394
322.33
322.177
322.414
322.517
322.542
322.483
322.332
322.507
322.614
322.642
322.585
322.435
320.706
320.776
320.9
321.075
321.3
321.566
320.694
320.763
320.881
321.047
321.253
321.488
320.62
320.494
320.697
320.578
320.832
320.728
321.028
320.95
321.278
321.222
321.568
321.513
321.846
322.104
322.312
322.454
322.515
322.506
321.731
321.956
322.143
322.274
322.342
322.349
320.861
320.923
320.912
320.828
320.672
320.933
320.994
320.984
320.9
320.743
321.057
321.12
321.109
321.025
320.868
321.234
321.298
321.288
321.205
321.046
321.462
321.528
321.519
321.435
321.276
321.731
321.799
321.792
321.709
321.549
320.85
320.911
320.9
320.817
320.661
320.919
320.981
320.97
320.887
320.73
321.039
321.101
321.091
321.008
320.851
321.206
321.27
321.261
321.177
321.019
321.415
321.481
321.473
321.389
321.231
321.653
321.721
321.715
321.633
321.474
320.775
320.836
320.825
320.742
320.586
320.648
320.709
320.697
320.615
320.46
320.852
320.914
320.903
320.819
320.663
320.732
320.793
320.783
320.699
320.544
320.989
321.051
321.041
320.957
320.8
320.884
320.946
320.935
320.852
320.696
321.187
321.25
321.24
321.157
320.999
321.108
321.171
321.161
321.078
320.921
321.44
321.505
321.497
321.413
321.254
321.384
321.449
321.441
321.357
321.199
321.733
321.801
321.794
321.711
321.551
321.678
321.746
321.74
321.657
321.497
322.016
322.088
322.084
322.003
321.843
322.279
322.357
322.359
322.28
322.12
322.495
322.581
322.59
322.516
322.358
322.648
322.745
322.764
322.698
322.543
322.724
322.833
322.863
322.806
322.655
322.726
322.846
322.884
322.833
322.687
321.9
321.972
321.969
321.889
321.729
322.131
322.208
322.21
322.132
321.973
322.324
322.408
322.415
322.342
322.184
322.463
322.555
322.57
322.501
322.345
322.539
322.639
322.661
322.598
322.445
322.552
322.657
322.684
322.625
322.474
322.564
322.573
322.136
321.847
321.839
321.767
322.029
322.74
322.662
322.681
322.467
322.453
322.508
322.306
322.277
322.163
322.749
322.7
322.481
322.454
322.585
322.543
322.377
322.34
322.091
322.083
322.308
322.302
322.659
322.632
322.736
322.636
322.6
322.701
322.4
322.167
322.455
322.903
323.068
323.131
323.108
322.996
322.829
322.971
323.027
322.991
322.852
322.31
322.387
322.387
322.308
322.147
322.016
322.088
322.084
322.002
321.841
322.009
322.081
322.079
321.998
321.837
321.935
322.006
322.001
321.919
321.759
322.201
322.276
322.274
322.194
322.033
323.041
323.188
323.243
323.211
323.098
322.953
323.094
323.141
323.103
322.98
322.906
323.027
323.066
323.016
322.869
322.729
322.854
322.891
322.843
322.703
322.646
322.741
322.757
322.69
322.534
322.716
322.823
322.85
322.791
322.639
322.491
322.579
322.589
322.517
322.36
322.466
322.557
322.57
322.501
322.345
322.345
322.429
322.438
322.364
322.207
323.045
323.191
323.243
323.21
323.094
322.915
323.029
323.062
323.007
322.857
322.671
322.763
322.777
322.707
322.55
322.64
322.729
322.739
322.668
322.509
322.782
322.88
322.899
322.833
322.678
322.734
322.828
322.843
322.774
322.617
322.561
322.646
322.653
322.579
322.42
322.521
322.603
322.608
322.533
322.373
322.267
322.346
322.349
322.272
322.113
322.257
322.334
322.334
322.255
322.094
322.49
322.574
322.581
322.507
322.348
322.482
322.564
322.569
322.493
322.334
322.978
323.132
323.19
323.162
323.047
322.868
322.997
323.042
322.996
322.852
322.994
323.126
323.175
323.136
323.006
322.846
322.956
322.986
322.929
322.778
322.798
322.898
322.919
322.854
322.699
322.919
323.034
323.07
323.017
322.868
322.583
322.668
322.676
322.602
322.443
322.343
322.421
322.422
322.343
322.183
322.642
322.729
322.74
322.668
322.509
322.371
322.525
322.59
322.571
322.474
322.28
322.605
322.592
322.856
322.862
322.579
322.555
322.846
322.831
322.332
322.047
322.33
322.074
322.302
322.316
322.12
322.614
322.6
322.867
322.875
322.584
322.56
322.855
322.835
322.32
322.02
322.318
322.053
322.292
322.311
322.102
322.612
322.596
322.871
322.881
322.579
322.553
322.855
322.833
322.308
321.945
322.305
321.988
322.278
322.298
322.047
322.558
322.543
322.822
322.833
322.523
322.492
322.805
322.779
322.235
321.851
322.235
321.896
322.21
322.233
321.966
322.46
322.445
322.722
322.733
322.425
322.387
322.704
322.678
322.135
321.775
322.136
321.811
322.115
322.13
321.879
322.282
322.268
322.538
322.549
322.251
322.219
322.521
322.496
321.976
321.646
321.98
321.679
321.962
321.979
321.748
323.259
323.259
323.08
323.082
323.253
323.247
323.074
323.064
323.385
323.479
323.378
323.464
323.375
323.357
323.434
323.273
323.271
323.092
323.096
323.261
323.25
323.083
323.071
323.405
323.481
323.394
323.462
323.383
323.358
323.429
323.279
323.274
323.097
323.104
323.259
323.244
323.084
323.067
323.396
323.442
323.382
323.425
323.364
323.338
323.394
323.23
323.222
323.049
323.057
323.204
323.184
323.033
323.014
323.334
323.351
323.318
323.335
323.293
323.262
323.306
323.124
323.115
322.946
322.955
323.093
323.066
322.929
322.909
323.216
323.217
323.199
323.204
323.17
323.136
323.18
322.931
322.921
322.757
322.766
322.899
322.875
322.74
322.72
323.021
323.041
323.004
323.027
322.98
322.951
323.002
321.013
321.061
321.152
321.229
321.347
321.426
321.613
321.677
321.553
321.629
321.345
321.42
321.191
321.261
321.065
321.116
321.413
321.516
321.548
321.689
321.737
321.867
321.861
322.027
320.85
320.577
320.9
320.645
320.981
320.718
321.064
320.815
321.269
321.116
321.41
321.217
320.887
321.048
321.714
321.96
321.852
322.036
322.01
322.219
322.173
322.333
321.435
321.69
321.583
321.777
321.211
321.458
320.263
320.073
320.392
320.194
320.405
320.166
320.56
320.34
320.606
320.284
320.848
320.547
321.039
320.74
321.259
320.954
321.495
321.541
321.708
321.733
321.924
321.981
322.096
322.153
321.333
321.284
321.086
321.083
321.89
321.892
322.055
322.025
322.253
322.299
322.4
322.423
321.538
321.453
321.72
321.59
320.965
320.604
320.839
320.437
320.701
320.333
320.63
320.214
321.185
320.832
321.012
320.617
321.381
321.032
321.15
320.759
319.814
319.403
319.748
319.342
319.946
319.562
319.821
319.433
320.16
319.862
319.942
319.621
321.197
321.7
320.74
320.396
320.023
321.622
321.09
320.544
320.178
319.778
321.764
321.29
320.833
320.4
319.975
319.024
318.83
318.829
318.657
319.22
318.998
318.961
318.776
319.554
319.304
319.185
318.965
321.494
321.284
320.915
320.634
320.38
320.091
319.955
319.672
319.4
319.12
321.668
321.496
321.138
320.848
320.643
320.316
320.151
319.802
319.535
319.172
321.4
321.079
321.635
321.348
321.922
321.815
322.133
322.066
321.107
320.735
320.879
320.483
321.833
321.547
321.964
321.691
322.304
322.24
322.428
322.377
321.314
320.935
321.445
321.076
320.508
320.065
319.772
319.243
320.323
319.857
319.646
319.125
320.678
320.249
319.892
319.372
320.837
320.405
320.058
319.565
318.755
318.658
318.495
318.723
318.672
318.522
318.883
318.765
318.592
318.82
318.759
318.597
319.135
318.983
318.79
318.962
318.877
318.695
321.026
320.733
320.425
320.332
320.075
319.803
319.812
319.587
319.347
319.44
319.248
319.019
319.076
318.963
318.749
321.255
320.925
320.575
320.459
320.116
319.773
319.92
319.615
319.306
319.487
319.249
318.975
319.086
318.942
318.695
322.311
322.416
322.406
322.543
322.052
322.181
322.161
322.322
322.344
322.549
322.369
322.559
322.413
322.595
322.46
322.63
322.612
322.52
322.672
322.563
322.639
322.716
322.652
322.778
322.453
322.592
322.676
322.798
322.762
322.877
322.762
322.882
322.757
322.942
322.721
322.892
322.791
322.979
322.785
322.956
322.823
323.026
322.878
323.06
322.919
323.077
323.021
323.147
322.551
322.641
322.677
322.777
322.28
322.358
322.425
322.509
322.852
322.971
322.741
322.851
322.799
322.894
322.92
322.997
322.562
322.639
322.694
322.753
322.96
323.075
323.071
323.167
322.998
323.153
323.097
323.185
322.908
323.077
322.992
323.097
323.087
323.221
323.188
323.261
323.184
323.294
323.269
323.327
322.741
322.642
322.919
322.818
322.749
322.643
322.935
322.829
322.758
322.663
322.959
322.864
322.453
322.129
322.655
322.817
322.988
322.057
322.376
322.563
322.722
322.905
322.195
322.51
322.737
322.889
323.01
322.476
322.248
322.65
322.429
322.492
322.275
322.678
322.466
322.53
322.324
322.732
322.534
321.961
321.783
322.3
322.118
322.492
322.307
322.642
322.453
322.815
322.628
322.133
322.024
322.457
322.346
322.677
322.548
322.818
322.662
322.923
322.733
322.654
322.606
322.792
322.779
322.36
322.321
322.524
322.53
322.963
322.906
322.844
322.756
322.899
322.914
323.001
323.026
322.652
322.685
322.766
322.811
323.06
323.027
323.152
323.127
323.065
322.96
323.106
322.95
322.957
322.825
323.022
322.845
323.155
323.072
323.18
323.042
323.231
323.158
323.247
323.126
321.941
321.638
321.353
322.052
321.709
321.422
321.986
321.679
321.387
322.104
321.758
321.459
322.052
321.749
321.453
322.188
321.825
321.505
321.546
321.253
320.94
321.875
321.572
321.251
322.059
321.742
321.415
322.191
321.873
321.555
322.278
321.896
321.547
321.83
321.511
321.154
322.143
321.817
321.457
322.317
321.971
321.6
322.392
322.028
321.653
322.367
321.965
321.581
323.012
322.872
322.521
321.89
322.953
322.803
322.442
321.805
323.039
322.893
322.541
321.903
323.002
322.842
322.477
321.839
323.073
322.918
322.581
321.961
323.088
322.916
322.556
321.923
323.079
322.888
322.502
321.854
323.117
322.905
322.503
321.851
323.153
322.969
322.616
321.988
323.141
322.945
322.621
322.055
323.096
322.931
322.612
322.029
323.078
322.901
322.6
322.067
323.199
322.998
322.617
321.965
323.196
322.984
322.64
322.06
323.247
323.027
322.633
321.984
323.245
323.017
322.663
322.085
323.001
322.876
322.557
321.961
322.919
322.812
322.539
322.018
323.009
322.879
322.565
321.973
322.923
322.811
322.539
322.024
323.02
322.882
322.577
322.003
322.94
322.817
322.545
322.035
323.023
322.875
322.584
322.043
322.957
322.822
322.552
322.057
323.016
322.856
322.578
322.081
322.792
322.702
322.455
322.081
322.65
322.57
322.319
321.967
322.808
322.71
322.461
322.088
322.666
322.577
322.323
321.969
322.837
322.725
322.471
322.095
322.696
322.591
322.33
321.976
322.879
322.748
322.488
322.11
322.735
322.612
322.342
321.985
322.934
322.779
322.509
322.126
322.781
322.635
322.355
321.994
323.038
322.838
322.538
322.14
322.9
322.704
322.399
322.023
322.987
322.808
322.523
322.132
322.841
322.669
322.377
322.009
323.084
322.866
322.553
322.147
322.955
322.737
322.419
322.039
323.129
322.895
322.572
322.163
323.005
322.769
322.44
322.056
320.942
320.182
319.538
319.018
318.62
320.893
320.142
319.501
318.981
318.584
320.948
320.185
319.54
319.019
318.622
320.903
320.149
319.506
318.986
318.589
320.959
320.19
319.543
319.022
318.624
320.938
320.179
319.533
319.012
318.614
320.919
320.159
319.513
318.992
318.594
320.931
320.168
319.52
318.997
318.598
320.966
320.194
319.546
319.024
318.625
320.927
320.138
319.489
318.967
318.569
320.957
320.18
319.532
319.01
318.612
320.914
320.125
319.476
318.955
318.558
320.967
320.194
319.545
319.022
318.623
320.923
320.132
319.482
318.96
318.562
320.98
320.203
319.551
319.027
318.628
320.926
320.132
319.48
318.957
318.559
320.937
320.164
319.519
318.999
318.602
320.88
320.097
319.453
318.934
318.538
320.938
320.163
319.517
318.997
318.599
320.881
320.096
319.451
318.932
318.536
320.937
320.157
319.51
318.99
318.592
320.881
320.094
319.448
318.928
318.532
320.92
320.133
319.485
318.965
318.567
320.871
320.082
319.435
318.916
318.52
320.886
320.097
319.449
318.929
318.533
317.994
317.879
318.051
317.933
318.151
318.02
318.279
318.124
318.41
318.229
318.62
318.412
318.514
318.31
318.723
318.524
318.829
318.649
316.769
315.442
314.337
313.486
312.91
316.788
315.452
314.335
313.478
312.893
316.795
315.455
314.346
313.492
312.915
316.811
315.462
314.343
313.481
312.897
316.845
315.483
314.363
313.505
312.926
316.859
315.488
314.36
313.493
312.907
316.913
315.523
314.39
313.524
312.942
316.922
315.525
314.384
313.511
312.922
316.993
315.574
314.424
313.55
312.964
316.989
315.568
314.413
313.533
312.94
317.166
315.698
314.516
313.621
313.026
317.147
315.681
314.496
313.598
312.998
317.079