/*--------------------------------*- C++ -*----------------------------------*\
  =========                 |
  \\      /  F ield         | OpenFOAM: The Open Source CFD Toolbox
   \\    /   O peration     | Website:  https://openfoam.org
    \\  /    A nd           | Version:  13
     \\/     M anipulation  |
\*---------------------------------------------------------------------------*/
FoamFile
{
    format      ascii;
    class       volScalarField;
    location    "134.831886";
    object      T;
}
// * * * * * * * * * * * * * * * * * * * * * * * * * * * * * * * * * * * * * //

dimensions      [0 0 0 1 0 0 0];

internalField   nonuniform List<scalar> 
5712
(
1030.55
1030.32
1029.94
1029.59
1029.05
1028.7
1027.85
1027.56
1028.12
1027.78
1029.07
1028.73
1029.77
1029.45
1030.31
1030.06
1028.75
1028.28
1028.15
1027.5
1027.28
1026.68
1026.72
1025.97
1031.3
1032.57
1031.06
1032.25
1030.73
1031.94
1030.35
1031.5
1029.42
1030.11
1028.77
1029.65
1031.16
1030.43
1027.41
1026.31
1026.78
1025.97
1026.07
1025.14
1025.32
1024.63
1028.68
1027.54
1028.01
1027.15
1029.7
1028.6
1034.02
1034.9
1033.42
1034.35
1033.38
1034.49
1032.68
1033.7
1032.45
1033.95
1031.35
1032.75
1030.5
1031.88
1029.52
1030.93
1028.36
1028.15
1027.41
1027.3
1026.41
1026.14
1025.64
1025.38
1029.12
1029.36
1030.24
1030.27
1026.61
1026.6
1025.88
1026.02
1024.96
1024.75
1024.32
1024.21
1028.21
1028.62
1027.41
1028.02
1030.82
1032.5
1031.43
1033.32
1032.02
1033.74
1032.37
1034.33
1029.83
1031.47
1030.66
1032.51
1028.96
1030.57
1030.05
1031.87
1036.1
1038.01
1036.42
1038.31
1035.51
1037.29
1036.09
1037.9
1034.51
1035.89
1035.54
1037.03
1029.71
1027.4
1031.82
1033.41
1035.17
1027.74
1030.19
1032.72
1034.41
1036.31
1027.11
1029.28
1031.4
1033.42
1035.43
1039.79
1040.68
1040.74
1041.53
1038.88
1039.91
1040.13
1040.98
1037.31
1038.46
1039.08
1040.09
1028.3
1029.24
1030.98
1032.25
1033.46
1034.77
1035.44
1036.73
1038.09
1039.38
1027.52
1028.27
1029.96
1031.26
1032.26
1033.75
1034.57
1036.17
1037.5
1039.2
1028.78
1030.25
1027.74
1029.04
1026.39
1026.83
1025.45
1025.71
1030.18
1031.91
1031.2
1033.04
1026.86
1028.16
1026.29
1027.54
1024.7
1024.96
1024.17
1024.37
1029.26
1031.02
1028.69
1030.41
1032.99
1035.07
1036.49
1039.02
1033.81
1036
1037.04
1039.52
1032.23
1034.25
1035.96
1038.45
1031.52
1033.56
1035.22
1037.57
1040.99
1041.44
1042.23
1041.15
1041.37
1042.09
1040.41
1040.95
1041.78
1040.71
1040.96
1041.75
1039.22
1039.91
1040.84
1040.04
1040.4
1041.28
1030.39
1031.72
1033.15
1033.61
1034.79
1036.06
1036.04
1037.07
1038.2
1037.77
1038.65
1039.74
1039.52
1040.01
1041.03
1029.34
1030.83
1032.44
1033.03
1034.59
1036.2
1035.54
1036.94
1038.39
1037.59
1038.66
1039.96
1039.51
1040.14
1041.31
1024.68
1024.19
1024.26
1023.64
1025.85
1025.25
1025.37
1024.63
1024.51
1023.58
1024.4
1023.54
1024.22
1023.39
1024.01
1023.25
1023.33
1023.73
1023.06
1023.53
1023.2
1022.87
1023.17
1022.63
1024.06
1023.46
1023.06
1022.54
1022.68
1022.19
1022.68
1022.17
1022.64
1021.82
1022.81
1022.04
1022.51
1021.67
1022.55
1021.78
1022.37
1021.46
1022.14
1021.33
1021.98
1021.27
1021.55
1020.99
1023.57
1023.16
1023.03
1022.57
1024.79
1024.43
1024.16
1023.77
1022.25
1021.71
1022.72
1022.22
1022.51
1022.07
1021.99
1021.64
1023.57
1023.21
1023
1022.72
1021.79
1021.27
1021.32
1020.88
1021.6
1020.92
1021.15
1020.77
1021.98
1021.23
1021.6
1021.14
1021.23
1020.64
1020.77
1020.45
1020.83
1020.34
1020.43
1020.18
1022.7
1023.13
1021.91
1022.35
1022.67
1023.12
1021.85
1022.3
1022.63
1023.03
1021.74
1022.14
1023.98
1025.44
1023.08
1022.36
1021.61
1025.76
1024.31
1023.48
1022.77
1021.97
1025.14
1023.72
1022.71
1022.04
1021.51
1023.85
1024.85
1023.08
1024.05
1023.78
1024.73
1022.95
1023.88
1023.61
1024.51
1022.72
1023.58
1026.17
1026.95
1024.64
1025.43
1023.78
1024.58
1023.11
1023.93
1022.35
1023.16
1025.4
1025.86
1023.94
1024.4
1022.96
1023.5
1022.33
1023
1021.88
1022.69
1023.07
1023.25
1022.47
1022.49
1024.39
1024.53
1023.68
1023.61
1021.71
1021.93
1022.23
1022.58
1022.02
1021.92
1021.59
1021.45
1023.13
1022.94
1022.64
1022.41
1021.31
1021.42
1020.93
1021
1021.26
1021.69
1021.09
1021.75
1021.73
1022.28
1021.45
1022.2
1020.89
1021.22
1020.78
1021.37
1020.57
1020.87
1020.51
1021.02
1026.21
1027.57
1028.87
1025.72
1027.25
1028.55
1026.01
1027.39
1028.72
1025.48
1027.03
1028.38
1025.71
1027.06
1028.41
1025.1
1026.72
1028.17
1028
1029.32
1030.75
1026.5
1027.86
1029.32
1025.67
1027.08
1028.57
1025.08
1026.49
1027.93
1024.69
1026.39
1027.97
1026.7
1028.13
1029.76
1025.28
1026.73
1028.37
1024.5
1026.03
1027.71
1024.17
1025.78
1027.47
1024.29
1026.07
1027.8
1021.51
1022.12
1023.65
1026.45
1021.77
1022.42
1024.01
1026.83
1021.4
1022.03
1023.57
1026.4
1021.57
1022.26
1023.86
1026.69
1021.25
1021.92
1023.4
1026.14
1021.2
1021.95
1023.52
1026.32
1021.26
1022.08
1023.77
1026.63
1021.11
1022.02
1023.77
1026.66
1020.92
1021.71
1023.25
1026.03
1020.97
1021.82
1023.24
1025.74
1021.15
1021.87
1023.27
1025.84
1021.23
1022.01
1023.33
1025.68
1020.73
1021.6
1023.26
1026.13
1020.74
1021.66
1023.16
1025.72
1020.54
1021.48
1023.2
1026.06
1020.54
1021.53
1023.07
1025.62
1021.55
1022.1
1023.5
1026.13
1021.91
1022.38
1023.58
1025.88
1021.52
1022.09
1023.47
1026.08
1021.9
1022.39
1023.58
1025.86
1021.48
1022.08
1023.41
1025.96
1021.82
1022.36
1023.56
1025.81
1021.46
1022.11
1023.39
1025.78
1021.75
1022.35
1023.53
1025.72
1021.5
1022.2
1023.42
1025.62
1022.47
1022.87
1023.95
1025.62
1023.1
1023.46
1024.57
1026.14
1022.4
1022.83
1023.93
1025.58
1023.02
1023.42
1024.55
1026.13
1022.27
1022.77
1023.89
1025.56
1022.9
1023.36
1024.52
1026.1
1022.09
1022.67
1023.81
1025.49
1022.72
1023.28
1024.47
1026.06
1021.85
1022.54
1023.73
1025.42
1022.52
1023.18
1024.41
1026.03
1021.42
1022.3
1023.61
1025.37
1022.02
1022.89
1024.24
1025.91
1021.63
1022.42
1023.67
1025.4
1022.27
1023.03
1024.33
1025.97
1021.23
1022.18
1023.55
1025.35
1021.79
1022.76
1024.16
1025.84
1021.04
1022.07
1023.48
1025.28
1021.59
1022.63
1024.07
1025.78
1030.7
1034.14
1037.09
1039.52
1041.42
1030.93
1034.33
1037.27
1039.7
1041.6
1030.68
1034.13
1037.09
1039.51
1041.42
1030.89
1034.31
1037.25
1039.68
1041.58
1030.63
1034.11
1037.07
1039.5
1041.41
1030.73
1034.17
1037.12
1039.55
1041.46
1030.82
1034.26
1037.22
1039.66
1041.56
1030.77
1034.23
1037.19
1039.63
1041.54
1030.6
1034.09
1037.06
1039.5
1041.4
1030.79
1034.36
1037.34
1039.78
1041.68
1030.64
1034.16
1037.13
1039.56
1041.47
1030.85
1034.42
1037.4
1039.83
1041.74
1030.6
1034.1
1037.07
1039.51
1041.41
1030.81
1034.39
1037.38
1039.82
1041.72
1030.55
1034.06
1037.04
1039.48
1041.39
1030.8
1034.4
1037.39
1039.83
1041.74
1030.73
1034.23
1037.19
1039.61
1041.52
1031
1034.55
1037.51
1039.94
1041.84
1030.73
1034.24
1037.2
1039.63
1041.53
1031
1034.55
1037.52
1039.94
1041.84
1030.73
1034.27
1037.23
1039.66
1041.57
1031
1034.57
1037.54
1039.96
1041.87
1030.82
1034.38
1037.36
1039.79
1041.69
1031.05
1034.63
1037.6
1040.03
1041.93
1030.98
1034.56
1037.53
1039.96
1041.86
1044.85
1045.41
1044.6
1045.17
1044.14
1044.77
1043.55
1044.3
1042.97
1043.84
1042.06
1043.05
1042.52
1043.5
1041.6
1042.56
1041.12
1042
1050.97
1057.67
1063.34
1067.78
1070.88
1050.88
1057.63
1063.36
1067.83
1070.98
1050.85
1057.62
1063.3
1067.76
1070.85
1050.77
1057.59
1063.32
1067.82
1070.96
1050.63
1057.49
1063.22
1067.69
1070.8
1050.56
1057.47
1063.24
1067.76
1070.91
1050.32
1057.31
1063.1
1067.6
1070.73
1050.27
1057.3
1063.13
1067.68
1070.84
1049.96
1057.08
1062.94
1067.49
1070.63
1049.97
1057.11
1063
1067.58
1070.76
1049.19
1056.51
1062.52
1067.16
1070.33
1049.27
1056.6
1062.62
1067.28
1070.48
1049.57
1056.8
1062.74
1067.33
1070.49
1049.64
1056.88
1062.83
1067.45
1070.64
1048.8
1056.22
1062.29
1066.97
1070.16
1048.86
1056.28
1062.38
1067.08
1070.3
1048.41
1055.91
1062.05
1066.77
1069.99
1048.41
1055.94
1062.1
1066.85
1070.1
1023.26
1024.09
1024.85
1023.9
1025.27
1025.13
1025.07
1024.88
1025.33
1025.08
1026.45
1026.15
1027.07
1026.73
1026.24
1025.95
1025.92
1025.72
1025.87
1025.72
1023.94
1023.77
1026.46
1027.54
1027.88
1027.98
1027
1026.32
1027.54
1026.17
1028.61
1030.22
1026.52
1026.93
1028.18
1026.87
1027.41
1027.54
1025.34
1025.31
1026.03
1025.81
1025.47
1025.24
1025.55
1025.94
1027.33
1027.08
1026.54
1026.29
1024.35
1024.08
1024.61
1024.4
1024.8
1024.86
1025.64
1026.57
1025.61
1022.39
1021.62
1021.31
1021.39
1021.87
1022.61
1021.96
1021.69
1021.84
1022.44
1025.66
1025.29
1025.26
1025.59
1026.31
1026.75
1026.41
1026.42
1026.77
1027.5
1027.09
1026.74
1026.73
1027.07
1027.79
1027.2
1026.86
1026.86
1027.22
1027.94
1026.2
1025.84
1025.82
1026.16
1026.87
1024.62
1023.62
1023.11
1023.03
1023.39
1025.73
1024.64
1024.09
1024.01
1024.42
1024.95
1024.19
1023.8
1023.86
1024.42
1026.93
1025.88
1025.38
1025.35
1025.84
1028.58
1027.5
1026.99
1026.96
1027.45
1025.54
1024.98
1024.78
1024.97
1025.61
1025.8
1025.1
1024.77
1024.88
1025.47
1027.08
1026.41
1026.1
1026.22
1026.82
1025.96
1025.46
1025.32
1025.56
1026.22
1026.44
1025.89
1025.69
1025.89
1026.53
1026.64
1026.16
1026.02
1026.27
1026.94
1023.78
1022.93
1022.51
1022.51
1022.92
1024.23
1023.59
1023.3
1023.43
1024.03
1025.1
1024.59
1024.43
1024.66
1025.31
1024.91
1024.45
1024.33
1024.59
1025.27
1024.52
1023.98
1023.8
1024.01
1024.66
1024.33
1023.85
1023.72
1023.97
1024.64
1024.7
1024.29
1024.22
1024.51
1025.21
1025.1
1024.69
1024.62
1024.92
1025.61
1026.5
1026.09
1026.02
1026.32
1027.02
1026.26
1025.88
1025.84
1026.16
1026.87
1025.67
1025.22
1025.11
1025.38
1026.06
1025.44
1025.02
1024.94
1025.24
1025.93
1022.84
1022.05
1021.71
1021.76
1022.21
1022.99
1022.37
1022.12
1022.28
1022.9
1023.35
1022.64
1022.31
1022.39
1022.9
1023.42
1022.88
1022.69
1022.89
1023.54
1023.87
1023.37
1023.22
1023.45
1024.11
1023.8
1023.18
1022.91
1023.06
1023.67
1024.78
1024.36
1024.27
1024.57
1025.26
1025.75
1025.37
1025.33
1025.65
1026.36
1024.73
1024.28
1024.17
1024.44
1025.12
1023.69
1024.18
1023.72
1024.26
1022.58
1023.15
1022.56
1023.07
1023.76
1023.82
1024.28
1024.16
1022.59
1022.62
1023.1
1022.94
1024.87
1026.03
1025.31
1026.43
1024.87
1025.93
1025.39
1026.43
1025.4
1024.94
1025.14
1024.84
1025.76
1026.22
1024.91
1025.44
1024.65
1025.23
1023.77
1024.33
1023.42
1023.97
1026.01
1026.58
1025.65
1026.31
1026.86
1027.55
1027.12
1028.07
1027.47
1028.38
1027.03
1028.17
1027.48
1028.49
1026.83
1028.36
1027.13
1028.49
1027.72
1029.12
1028.52
1029.94
1024.18
1024.49
1024.42
1024.76
1022.73
1022.83
1022.97
1023.07
1025.82
1026.68
1025.6
1026.39
1024.8
1025.1
1025.29
1025.52
1023.34
1023.37
1023.8
1023.75
1026.21
1027.03
1026.75
1027.49
1027.29
1028.98
1028.68
1030.59
1027.14
1028.96
1028.44
1030.44
1027.67
1029.29
1029.03
1030.88
1028.24
1029.84
1029.51
1031.33
1027.18
1027.72
1028.24
1029.1
1027.09
1027.54
1028.39
1029.21
1026.93
1027.17
1028.66
1029.34
1024.13
1022.63
1025.62
1027.23
1029.31
1022.58
1024.01
1025.49
1027.19
1029.67
1022.71
1024.33
1026.21
1028.29
1030.46
1028.62
1029.04
1031.37
1032.2
1028.2
1028.62
1031.21
1032.03
1027.58
1027.93
1031.01
1031.84
1022.62
1022.86
1024.15
1024.43
1025.76
1026.05
1027.72
1028.08
1031.27
1032.16
1022.73
1022.98
1024.51
1025.08
1026.56
1027.28
1028.96
1029.81
1032.22
1033.3
1024.94
1025.9
1025.19
1026.17
1022.9
1023.03
1023.11
1023.19
1027.5
1028.91
1027.2
1028.53
1025.4
1026.53
1025.81
1027.02
1023.36
1023.5
1023.73
1023.9
1027.72
1029.3
1028.19
1029.86
1030.3
1032.11
1033.89
1036.18
1029.83
1031.59
1033.24
1035.39
1030.66
1032.54
1034.44
1036.8
1030.99
1033
1034.73
1037.05
1029.22
1029.6
1031.71
1031.79
1028.82
1029.24
1031.61
1031.66
1028.23
1028.83
1031.5
1031.6
1023.35
1024.19
1024.96
1025.76
1026.51
1027.21
1028.46
1029.13
1031.71
1031.76
1023.48
1024.39
1025.86
1026.71
1027.98
1028.63
1030.13
1030.46
1032.38
1032.28
1020.78
1020.74
1021.27
1021.06
1021.58
1021.54
1022.1
1021.87
1020.23
1019.85
1020.71
1020.31
1020.24
1019.89
1020.76
1020.37
1020.66
1020.23
1020.59
1020.27
1019.96
1020.38
1021.51
1022.05
1022.32
1022.85
1021.26
1021.88
1021.06
1021.61
1020.96
1021.52
1019.63
1019.52
1020.08
1019.94
1019.63
1019.48
1020.1
1019.91
1019.64
1019.43
1019.99
1019.72
1020.51
1020.19
1021.01
1020.59
1020.6
1020.58
1020.83
1020.73
1021.51
1021.5
1021.75
1021.7
1020.22
1020.09
1020.02
1019.97
1021.16
1020.97
1021.55
1021.26
1022.1
1021.97
1022.52
1022.31
1020.53
1020.29
1020.9
1020.56
1019.8
1019.54
1019.74
1019.63
1019.62
1019.43
1019.65
1019.57
1020.09
1019.77
1019.91
1019.76
1020.44
1020.04
1020.15
1019.95
1019.44
1019.52
1019.36
1019.48
1019.47
1019.56
1019.36
1019.5
1019.54
1019.62
1019.38
1019.51
1020.52
1021.42
1019.95
1019.58
1019.45
1021.43
1020.57
1020.01
1019.65
1019.54
1021.41
1020.52
1019.94
1019.63
1019.58
1019.84
1020.4
1019.87
1020.46
1019.83
1020.35
1019.83
1020.41
1019.83
1020.29
1019.79
1020.32
1021.45
1021.68
1020.59
1020.87
1020.08
1020.43
1019.78
1020.18
1019.75
1020.23
1021.37
1021.48
1020.5
1020.65
1019.97
1020.21
1019.73
1020.09
1019.76
1020.25
1020.47
1020.47
1020.65
1020.55
1021.38
1021.3
1021.6
1021.4
1020.1
1020.19
1019.95
1020.12
1020.94
1020.77
1021.23
1021.07
1021.91
1021.65
1022.24
1021.99
1020.34
1020.38
1020.6
1020.66
1019.86
1020.14
1019.93
1020.41
1019.75
1020.1
1019.83
1020.33
1020.04
1020.3
1020.09
1020.57
1020.28
1020.56
1020.28
1020.76
1021.08
1021.73
1021.34
1022.09
1020.99
1021.68
1021.27
1022.07
1020.9
1021.67
1021.16
1022.09
1022.16
1023.01
1021.4
1022.26
1020.98
1021.84
1020.78
1021.68
1021.08
1022.18
1021.89
1022.86
1021.11
1022.13
1020.79
1021.85
1020.8
1021.9
1021.19
1022.43
1019.94
1021.07
1022.94
1025.97
1020.33
1021.46
1023.35
1026.38
1019.91
1021.04
1022.9
1025.95
1020.28
1021.4
1023.28
1026.3
1019.89
1021.01
1022.78
1025.74
1020.12
1021.22
1023.02
1025.98
1020.53
1021.59
1023.43
1026.4
1020.84
1021.85
1023.65
1026.57
1019.98
1021.08
1022.81
1025.72
1020.17
1021.28
1022.85
1025.45
1019.93
1021.05
1022.7
1025.46
1020.14
1021.27
1022.82
1025.32
1020.13
1021.2
1022.97
1025.93
1020.25
1021.33
1022.92
1025.53
1020.33
1021.34
1023.1
1025.99
1020.38
1021.42
1022.99
1025.55
1019.81
1020.95
1022.72
1025.6
1019.99
1021.13
1022.73
1025.3
1019.84
1020.97
1022.71
1025.58
1020.03
1021.16
1022.75
1025.3
1019.89
1021.03
1022.71
1025.49
1020.08
1021.21
1022.78
1025.29
1020.01
1021.14
1022.73
1025.35
1020.14
1021.28
1022.81
1025.24
1020.17
1021.31
1022.81
1025.2
1020.42
1021.55
1023.06
1024.94
1020.97
1022.1
1023.65
1025.42
1020.41
1021.55
1023.06
1024.93
1020.97
1022.11
1023.66
1025.43
1020.42
1021.56
1023.07
1024.95
1020.98
1022.12
1023.68
1025.44
1020.43
1021.58
1023.08
1024.95
1020.99
1022.14
1023.69
1025.45
1020.45
1021.61
1023.09
1024.94
1021.01
1022.18
1023.73
1025.48
1020.61
1021.75
1023.22
1025.06
1021.11
1022.28
1023.81
1025.56
1020.51
1021.67
1023.15
1025
1021.04
1022.22
1023.75
1025.51
1020.73
1021.85
1023.31
1025.15
1021.24
1022.38
1023.89
1025.63
1020.88
1021.95
1023.4
1025.21
1021.4
1022.5
1023.98
1025.71
1030.42
1033.97
1036.99
1039.45
1041.37
1030.66
1034.16
1037.17
1039.63
1041.54
1030.42
1033.97
1036.99
1039.45
1041.37
1030.65
1034.16
1037.16
1039.62
1041.54
1030.4
1033.97
1036.99
1039.45
1041.36
1030.53
1034.05
1037.05
1039.5
1041.42
1030.68
1034.18
1037.17
1039.62
1041.53
1030.72
1034.19
1037.17
1039.62
1041.53
1030.42
1033.99
1036.99
1039.45
1041.37
1030.63
1034.27
1037.28
1039.74
1041.65
1030.43
1034.03
1037.05
1039.51
1041.42
1030.66
1034.31
1037.33
1039.79
1041.7
1030.48
1034.02
1037.02
1039.47
1041.39
1030.71
1034.33
1037.34
1039.79
1041.7
1030.51
1034.03
1037.03
1039.47
1041.39
1030.77
1034.38
1037.38
1039.82
1041.73
1030.43
1034.05
1037.08
1039.54
1041.46
1030.69
1034.37
1037.4
1039.86
1041.78
1030.45
1034.07
1037.09
1039.56
1041.47
1030.7
1034.38
1037.41
1039.87
1041.79
1030.48
1034.11
1037.14
1039.6
1041.52
1030.73
1034.41
1037.44
1039.9
1041.81
1030.59
1034.25
1037.27
1039.73
1041.65
1030.81
1034.49
1037.51
1039.97
1041.88
1030.77
1034.43
1037.45
1039.91
1041.82
1037.23
1037.88
1037.32
1037.98
1037.52
1038.2
1037.85
1038.52
1038.37
1038.95
1039.69
1040.44
1039.1
1039.75
1040.2
1041.03
1040.66
1041.5
1045.41
1053.74
1060.42
1065.47
1068.87
1045.24
1053.65
1060.41
1065.51
1068.96
1045.5
1053.8
1060.46
1065.51
1068.89
1045.34
1053.73
1060.46
1065.56
1069
1045.66
1053.91
1060.54
1065.57
1068.95
1045.51
1053.84
1060.54
1065.62
1069.04
1045.92
1054.09
1060.67
1065.67
1069.03
1045.74
1054
1060.65
1065.71
1069.12
1046.29
1054.33
1060.85
1065.81
1069.15
1046.05
1054.2
1060.8
1065.82
1069.22
1047.17
1054.94
1061.3
1066.16
1069.46
1047.02
1054.85
1061.27
1066.19
1069.52
1046.72
1054.62
1061.06
1065.97
1069.3
1046.49
1054.49
1061
1065.98
1069.35
1047.59
1055.27
1061.54
1066.36
1069.63
1047.51
1055.23
1061.55
1066.41
1069.71
1048.01
1055.59
1061.8
1066.57
1069.81
1047.97
1055.6
1061.83
1066.63
1069.91
1022.56
1023.34
1022.75
1021.94
1020.8
1021.29
1020.79
1021.34
1021.59
1022.17
1021.59
1022.09
1031.49
1031.33
1030.95
1030.33
1029.51
1028.52
1031.56
1031.41
1031.04
1030.47
1029.71
1028.83
1031.89
1032.49
1031.71
1032.28
1031.28
1031.79
1030.58
1030.99
1029.65
1029.97
1028.57
1028.91
1027.45
1026.44
1025.58
1024.86
1024.33
1023.95
1027.89
1026.97
1026.15
1025.47
1024.94
1024.57
1030.76
1030.47
1030.52
1030.92
1031.65
1030.6
1030.31
1030.36
1030.75
1031.49
1030.21
1029.92
1029.96
1030.35
1031.09
1029.59
1029.29
1029.33
1029.72
1030.45
1028.76
1028.45
1028.49
1028.87
1029.6
1027.75
1027.43
1027.45
1027.83
1028.55
1030.83
1030.54
1030.59
1030.98
1031.72
1030.68
1030.38
1030.43
1030.82
1031.56
1030.3
1030.01
1030.05
1030.44
1031.18
1029.72
1029.42
1029.46
1029.85
1030.58
1028.96
1028.65
1028.68
1029.06
1029.79
1028.07
1027.74
1027.76
1028.13
1028.86
1031.16
1030.87
1030.92
1031.32
1032.05
1031.76
1031.47
1031.52
1031.92
1032.65
1030.98
1030.69
1030.74
1031.13
1031.86
1031.55
1031.26
1031.31
1031.7
1032.44
1030.54
1030.25
1030.29
1030.68
1031.42
1031.06
1030.76
1030.81
1031.2
1031.93
1029.84
1029.54
1029.58
1029.97
1030.7
1030.25
1029.95
1029.99
1030.38
1031.11
1028.9
1028.59
1028.63
1029.01
1029.74
1029.22
1028.91
1028.94
1029.32
1030.05
1027.81
1027.49
1027.51
1027.88
1028.61
1028.15
1027.82
1027.84
1028.21
1028.93
1026.67
1026.33
1026.33
1026.69
1027.41
1025.64
1025.27
1025.24
1025.57
1026.29
1024.73
1024.32
1024.26
1024.56
1025.26
1023.97
1023.5
1023.39
1023.66
1024.34
1023.37
1022.86
1022.7
1022.94
1023.6
1022.96
1022.41
1022.23
1022.45
1023.1
1027.11
1026.77
1026.77
1027.12
1027.85
1026.17
1025.81
1025.78
1026.12
1026.83
1025.32
1024.93
1024.87
1025.19
1025.89
1024.6
1024.17
1024.09
1024.38
1025.07
1024.04
1023.58
1023.47
1023.74
1024.41
1023.66
1023.18
1023.06
1023.31
1023.99
1031.43
1031.13
1030.6
1029.85
1028.88
1027.74
1031.49
1031.2
1030.7
1029.99
1029.1
1028.09
1031.82
1032.41
1031.49
1032.06
1030.91
1031.41
1030.07
1030.45
1028.99
1029.27
1027.74
1028.01
1026.53
1025.42
1024.54
1023.93
1023.68
1023.71
1027.04
1026.08
1025.28
1024.72
1024.43
1024.39
1030.69
1030.4
1030.46
1030.85
1031.58
1030.39
1030.1
1030.15
1030.55
1031.28
1029.86
1029.57
1029.62
1030.01
1030.75
1029.1
1028.81
1028.85
1029.24
1029.98
1028.13
1027.83
1027.87
1028.25
1028.99
1026.98
1026.67
1026.7
1027.08
1027.81
1030.76
1030.47
1030.52
1030.92
1031.65
1030.47
1030.18
1030.23
1030.62
1031.36
1029.96
1029.67
1029.71
1030.11
1030.84
1029.24
1028.95
1028.99
1029.38
1030.12
1028.35
1028.05
1028.08
1028.47
1029.2
1027.33
1027.02
1027.04
1027.42
1028.16
1031.09
1030.8
1030.85
1031.25
1031.98
1031.68
1031.4
1031.45
1031.84
1032.57
1030.76
1030.47
1030.52
1030.92
1031.65
1031.32
1031.04
1031.09
1031.48
1032.21
1030.18
1029.89
1029.94
1030.33
1031.07
1030.68
1030.39
1030.44
1030.83
1031.56
1029.33
1029.03
1029.08
1029.47
1030.21
1029.71
1029.42
1029.46
1029.85
1030.59
1028.24
1027.94
1027.98
1028.37
1029.11
1028.52
1028.22
1028.26
1028.65
1029.38
1026.98
1026.67
1026.7
1027.08
1027.82
1027.26
1026.94
1026.98
1027.36
1028.09
1025.76
1025.43
1025.45
1025.82
1026.55
1024.63
1024.28
1024.27
1024.63
1025.35
1023.71
1023.33
1023.29
1023.62
1024.33
1023.06
1022.63
1022.55
1022.84
1023.54
1022.74
1022.26
1022.12
1022.38
1023.05
1022.73
1022.2
1022.03
1022.25
1022.91
1026.27
1025.94
1025.96
1026.33
1027.06
1025.28
1024.93
1024.93
1025.28
1026.01
1024.46
1024.08
1024.05
1024.38
1025.1
1023.87
1023.46
1023.39
1023.7
1024.4
1023.54
1023.1
1023
1023.28
1023.97
1023.48
1023.01
1022.89
1023.15
1023.83
1023.52
1023.45
1025.29
1026.53
1026.63
1026.91
1025.77
1022.84
1023.21
1023.07
1024.07
1024.03
1023.83
1024.66
1024.82
1025.3
1022.77
1022.94
1023.88
1023.97
1023.42
1023.57
1024.26
1024.44
1025.58
1025.57
1024.63
1024.62
1023.13
1023.19
1022.79
1023.17
1023.32
1022.92
1024.17
1025.18
1023.95
1022
1021.27
1020.99
1021.09
1021.59
1022.3
1021.67
1021.42
1021.58
1022.2
1024.5
1024.16
1024.16
1024.51
1025.24
1025.76
1025.44
1025.46
1025.83
1026.56
1025.85
1025.52
1025.54
1025.91
1026.64
1026.14
1025.82
1025.84
1026.21
1026.95
1024.99
1024.65
1024.66
1025.03
1025.76
1021.5
1020.85
1020.61
1020.74
1021.24
1021.91
1021.28
1021.07
1021.23
1021.78
1022.07
1021.53
1021.36
1021.58
1022.23
1022.9
1022.33
1022.17
1022.38
1023
1023.17
1022.74
1022.67
1022.97
1023.67
1022.9
1022.42
1022.3
1022.57
1023.24
1023.83
1023.44
1023.39
1023.72
1024.42
1023.97
1023.56
1023.5
1023.81
1024.51
1024.48
1024.1
1024.06
1024.39
1025.1
1021.45
1020.81
1020.57
1020.72
1021.23
1021.99
1021.48
1021.34
1021.58
1022.24
1023.03
1022.62
1022.56
1022.87
1023.57
1023.14
1022.74
1022.7
1023.02
1023.73
1022.54
1022.11
1022.02
1022.31
1023.01
1022.72
1022.3
1022.24
1022.54
1023.24
1023.44
1023.06
1023.02
1023.35
1024.07
1023.62
1023.26
1023.23
1023.57
1024.29
1024.78
1024.42
1024.41
1024.76
1025.48
1024.78
1024.44
1024.44
1024.8
1025.52
1023.81
1023.43
1023.4
1023.73
1024.45
1023.81
1023.45
1023.42
1023.76
1024.48
1021.7
1021.02
1020.76
1020.88
1021.39
1022.14
1021.57
1021.37
1021.57
1022.21
1021.64
1021.05
1020.84
1021.01
1021.58
1022.23
1021.74
1021.61
1021.86
1022.53
1022.44
1021.99
1021.9
1022.19
1022.88
1021.95
1021.44
1021.28
1021.52
1022.17
1023.35
1022.97
1022.94
1023.27
1023.98
1024.39
1024.04
1024.04
1024.39
1025.12
1023.12
1022.72
1022.68
1023
1023.71
1024.42
1023.73
1023.44
1023.52
1023.96
1024.83
1023.53
1023.58
1022.4
1022.38
1023.64
1023.74
1022.44
1022.5
1024.75
1026.05
1024.76
1025.93
1024.88
1024.82
1025.71
1023.49
1023.55
1022.35
1022.32
1023.62
1023.72
1022.4
1022.49
1024.82
1026.19
1024.83
1026.03
1024.94
1024.85
1025.81
1023.51
1023.58
1022.35
1022.31
1023.65
1023.76
1022.41
1022.5
1024.88
1026.54
1024.9
1026.35
1025.02
1024.92
1026.08
1023.76
1023.83
1022.57
1022.53
1023.91
1024.05
1022.64
1022.75
1025.22
1026.98
1025.22
1026.77
1025.33
1025.23
1026.45
1024.2
1024.27
1023.02
1022.98
1024.36
1024.52
1023.09
1023.2
1025.68
1027.33
1025.67
1027.16
1025.77
1025.69
1026.85
1025.01
1025.07
1023.85
1023.8
1025.14
1025.28
1023.92
1024.02
1026.4
1027.92
1026.38
1027.76
1026.46
1026.38
1027.45
1020.62
1020.61
1021.4
1021.4
1020.63
1020.65
1021.42
1021.46
1020.06
1019.65
1020.08
1019.71
1020.09
1020.17
1019.83
1020.56
1020.56
1021.35
1021.34
1020.6
1020.64
1021.39
1021.43
1019.98
1019.64
1020.02
1019.72
1020.06
1020.16
1019.86
1020.54
1020.56
1021.34
1021.31
1020.61
1020.67
1021.39
1021.46
1020.02
1019.82
1020.08
1019.89
1020.15
1020.26
1020.02
1020.76
1020.79
1021.56
1021.53
1020.86
1020.95
1021.62
1021.7
1020.3
1020.22
1020.37
1020.29
1020.47
1020.6
1020.41
1021.23
1021.26
1022.02
1021.98
1021.36
1021.47
1022.09
1022.17
1020.82
1020.81
1020.89
1020.87
1021.01
1021.16
1020.97
1022.09
1022.12
1022.86
1022.82
1022.21
1022.31
1022.93
1023.01
1021.68
1021.59
1021.75
1021.65
1021.85
1021.98
1021.75
1030.59
1030.37
1029.95
1029.6
1029.06
1028.7
1027.85
1027.56
1028.12
1027.78
1029.07
1028.73
1029.78
1029.46
1030.36
1030.12
1028.75
1028.28
1028.15
1027.51
1027.28
1026.68
1026.72
1025.97
1031.34
1032.59
1031.11
1032.28
1030.74
1031.94
1030.36
1031.5
1029.42
1030.11
1028.78
1029.65
1031.17
1030.43
1027.41
1026.32
1026.78
1025.97
1026.07
1025.14
1025.33
1024.63
1028.68
1027.54
1028.01
1027.15
1029.71
1028.6
1034.04
1034.93
1033.45
1034.38
1033.38
1034.5
1032.68
1033.71
1032.46
1033.96
1031.35
1032.75
1030.5
1031.89
1029.52
1030.93
1028.37
1028.15
1027.41
1027.3
1026.41
1026.14
1025.65
1025.38
1029.13
1029.36
1030.24
1030.27
1026.61
1026.6
1025.88
1026.02
1024.96
1024.75
1024.32
1024.21
1028.22
1028.62
1027.41
1028.02
1030.82
1032.51
1031.43
1033.32
1032.02
1033.74
1032.37
1034.33
1029.83
1031.47
1030.66
1032.51
1028.96
1030.58
1030.05
1031.88
1036.12
1038.04
1036.44
1038.33
1035.51
1037.29
1036.09
1037.9
1034.51
1035.89
1035.54
1037.03
1029.71
1027.4
1031.82
1033.42
1035.17
1027.74
1030.19
1032.72
1034.42
1036.31
1027.11
1029.28
1031.4
1033.42
1035.43
1039.82
1040.71
1040.76
1041.54
1038.88
1039.91
1040.13
1040.98
1037.31
1038.46
1039.08
1040.09
1028.3
1029.24
1030.98
1032.25
1033.46
1034.77
1035.44
1036.73
1038.09
1039.38
1027.52
1028.27
1029.96
1031.27
1032.26
1033.75
1034.57
1036.17
1037.51
1039.2
1028.78
1030.25
1027.74
1029.04
1026.39
1026.83
1025.45
1025.71
1030.19
1031.91
1031.21
1033.04
1026.86
1028.17
1026.29
1027.54
1024.7
1024.96
1024.17
1024.37
1029.26
1031.02
1028.69
1030.41
1032.99
1035.08
1036.49
1039.02
1033.82
1036
1037.05
1039.53
1032.24
1034.25
1035.97
1038.45
1031.52
1033.56
1035.22
1037.57
1041.02
1041.46
1042.25
1041.16
1041.38
1042.11
1040.41
1040.95
1041.78
1040.71
1040.96
1041.75
1039.22
1039.91
1040.84
1040.04
1040.41
1041.28
1030.4
1031.72
1033.15
1033.61
1034.79
1036.06
1036.04
1037.07
1038.2
1037.78
1038.65
1039.74
1039.52
1040.01
1041.03
1029.34
1030.83
1032.45
1033.03
1034.59
1036.2
1035.54
1036.94
1038.4
1037.59
1038.66
1039.96
1039.51
1040.14
1041.32
1024.68
1024.2
1024.26
1023.64
1025.85
1025.25
1025.37
1024.63
1024.53
1023.6
1024.42
1023.56
1024.22
1023.4
1024.01
1023.25
1023.33
1023.73
1023.06
1023.53
1023.2
1022.87
1023.17
1022.63
1024.06
1023.46
1023.06
1022.54
1022.68
1022.19
1022.68
1022.17
1022.66
1021.83
1022.83
1022.06
1022.51
1021.67
1022.55
1021.78
1022.37
1021.46
1022.14
1021.33
1021.98
1021.27
1021.55
1020.99
1023.57
1023.16
1023.03
1022.57
1024.8
1024.43
1024.16
1023.77
1022.25
1021.71
1022.72
1022.22
1022.51
1022.07
1022
1021.64
1023.57
1023.21
1023
1022.72
1021.79
1021.27
1021.32
1020.88
1021.6
1020.92
1021.15
1020.77
1021.98
1021.23
1021.6
1021.14
1021.23
1020.64
1020.77
1020.45
1020.83
1020.34
1020.43
1020.18
1022.71
1023.13
1021.92
1022.35
1022.67
1023.12
1021.85
1022.3
1022.63
1023.03
1021.74
1022.14
1023.98
1025.44
1023.08
1022.36
1021.61
1025.76
1024.32
1023.48
1022.77
1021.97
1025.15
1023.72
1022.71
1022.04
1021.51
1023.86
1024.86
1023.08
1024.05
1023.78
1024.73
1022.96
1023.88
1023.61
1024.51
1022.72
1023.58
1026.17
1026.95
1024.64
1025.43
1023.78
1024.58
1023.11
1023.93
1022.35
1023.16
1025.4
1025.86
1023.94
1024.4
1022.96
1023.5
1022.34
1023
1021.88
1022.69
1023.07
1023.25
1022.47
1022.49
1024.4
1024.53
1023.68
1023.61
1021.71
1021.93
1022.23
1022.58
1022.02
1021.92
1021.59
1021.45
1023.13
1022.94
1022.64
1022.41
1021.31
1021.42
1020.93
1021
1021.26
1021.69
1021.09
1021.75
1021.73
1022.28
1021.45
1022.2
1020.89
1021.22
1020.78
1021.37
1020.57
1020.87
1020.51
1021.02
1026.22
1027.58
1028.88
1025.72
1027.26
1028.56
1026.01
1027.39
1028.72
1025.48
1027.03
1028.39
1025.71
1027.06
1028.41
1025.1
1026.72
1028.17
1028
1029.32
1030.75
1026.5
1027.86
1029.32
1025.67
1027.08
1028.57
1025.08
1026.49
1027.93
1024.69
1026.39
1027.97
1026.7
1028.13
1029.76
1025.28
1026.73
1028.37
1024.5
1026.03
1027.71
1024.17
1025.78
1027.47
1024.29
1026.07
1027.8
1021.52
1022.13
1023.66
1026.46
1021.79
1022.43
1024.02
1026.84
1021.4
1022.03
1023.57
1026.4
1021.57
1022.26
1023.86
1026.69
1021.26
1021.92
1023.4
1026.14
1021.2
1021.95
1023.52
1026.32
1021.26
1022.08
1023.77
1026.63
1021.11
1022.02
1023.77
1026.66
1020.92
1021.71
1023.25
1026.03
1020.97
1021.82
1023.24
1025.74
1021.16
1021.87
1023.27
1025.84
1021.23
1022.01
1023.33
1025.68
1020.73
1021.6
1023.26
1026.13
1020.74
1021.66
1023.16
1025.72
1020.54
1021.48
1023.2
1026.06
1020.54
1021.53
1023.07
1025.62
1021.56
1022.1
1023.5
1026.14
1021.91
1022.38
1023.58
1025.88
1021.52
1022.09
1023.47
1026.08
1021.9
1022.39
1023.58
1025.86
1021.48
1022.08
1023.41
1025.96
1021.82
1022.36
1023.56
1025.81
1021.47
1022.11
1023.39
1025.78
1021.75
1022.35
1023.53
1025.72
1021.5
1022.2
1023.42
1025.62
1022.47
1022.87
1023.95
1025.61
1023.1
1023.45
1024.57
1026.14
1022.4
1022.83
1023.93
1025.58
1023.03
1023.42
1024.55
1026.13
1022.27
1022.77
1023.89
1025.56
1022.9
1023.36
1024.52
1026.1
1022.09
1022.67
1023.81
1025.49
1022.72
1023.28
1024.47
1026.06
1021.86
1022.54
1023.73
1025.42
1022.52
1023.18
1024.42
1026.03
1021.42
1022.3
1023.61
1025.37
1022.02
1022.89
1024.24
1025.91
1021.63
1022.42
1023.67
1025.4
1022.27
1023.03
1024.33
1025.97
1021.23
1022.18
1023.55
1025.35
1021.79
1022.76
1024.16
1025.84
1021.04
1022.07
1023.48
1025.28
1021.59
1022.63
1024.07
1025.78
1030.71
1034.15
1037.09
1039.52
1041.42
1030.93
1034.34
1037.28
1039.7
1041.6
1030.68
1034.13
1037.09
1039.51
1041.42
1030.89
1034.3
1037.25
1039.68
1041.58
1030.63
1034.11
1037.07
1039.5
1041.41
1030.73
1034.17
1037.12
1039.55
1041.46
1030.82
1034.26
1037.22
1039.65
1041.56
1030.77
1034.23
1037.19
1039.63
1041.54
1030.6
1034.09
1037.06
1039.5
1041.4
1030.79
1034.36
1037.34
1039.78
1041.68
1030.64
1034.16
1037.13
1039.56
1041.47
1030.85
1034.42
1037.4
1039.83
1041.74
1030.6
1034.1
1037.07
1039.51
1041.41
1030.81
1034.39
1037.38
1039.81
1041.72
1030.55
1034.06
1037.04
1039.48
1041.39
1030.8
1034.4
1037.39
1039.83
1041.74
1030.73
1034.23
1037.19
1039.61
1041.52
1031
1034.55
1037.51
1039.93
1041.84
1030.73
1034.24
1037.2
1039.63
1041.53
1031
1034.55
1037.52
1039.94
1041.84
1030.73
1034.27
1037.23
1039.66
1041.57
1031
1034.57
1037.54
1039.96
1041.87
1030.82
1034.38
1037.36
1039.79
1041.69
1031.05
1034.63
1037.6
1040.03
1041.93
1030.98
1034.56
1037.53
1039.96
1041.86
1044.86
1045.42
1044.6
1045.17
1044.14
1044.78
1043.55
1044.3
1042.97
1043.84
1042.06
1043.06
1042.52
1043.5
1041.6
1042.56
1041.12
1042
1050.97
1057.68
1063.34
1067.78
1070.88
1050.88
1057.63
1063.36
1067.83
1070.98
1050.85
1057.62
1063.3
1067.76
1070.85
1050.78
1057.59
1063.32
1067.82
1070.96
1050.63
1057.49
1063.22
1067.69
1070.8
1050.56
1057.47
1063.24
1067.76
1070.91
1050.32
1057.31
1063.1
1067.61
1070.73
1050.27
1057.3
1063.13
1067.68
1070.84
1049.96
1057.08
1062.94
1067.49
1070.63
1049.97
1057.11
1063
1067.58
1070.76
1049.19
1056.52
1062.52
1067.16
1070.33
1049.27
1056.6