/*--------------------------------*- C++ -*----------------------------------*\
| =========                 |                                                 |
| \\      /  F ield         | OpenFOAM: The Open Source CFD Toolbox           |
|  \\    /   O peration     | Version:  2306                                  |
|   \\  /    A nd           | Website:  www.openfoam.com                      |
|    \\/     M anipulation  |                                                 |
\*---------------------------------------------------------------------------*/
FoamFile
{
    version     2.0;
    format      ascii;
    arch        "LSB;label=32;scalar=64";
    class       volScalarField;
    location    "40";
    object      p;
}
// * * * * * * * * * * * * * * * * * * * * * * * * * * * * * * * * * * * * * //

dimensions      [0 2 -2 0 0 0 0];

internalField   nonuniform List<scalar> 
4480
(
0.0107492
0.0107347
0.0107307
0.0107306
0.0107327
0.0107373
0.0107448
0.0107552
0.0107686
0.0107849
0.0108041
0.010826
0.0108502
0.0108764
0.0109037
0.0109315
0.0109584
0.0109833
0.011005
0.0110226
0.0110347
0.0110395
0.0110363
0.0110249
0.0110053
0.010978
0.0109439
0.0109041
0.0108599
0.0108126
0.0107635
0.0107139
0.0106648
0.010617
0.0105714
0.0105282
0.0104881
0.0104512
0.0104176
0.0103871
0.0103598
0.0103353
0.0103135
0.0102942
0.0102771
0.0102621
0.0102489
0.0102372
0.010227
0.010218
0.01021
0.010203
0.0101969
0.0101914
0.0101866
0.0101823
0.0101785
0.010175
0.010172
0.0101692
0.0101667
0.0101644
0.0101623
0.0101603
0.0101586
0.0101569
0.0101553
0.0101538
0.0101524
0.010151
0.0101496
0.0101483
0.010147
0.0101457
0.0101444
0.0101431
0.0101418
0.0101405
0.0101392
0.0101378
0.0101364
0.010135
0.0101335
0.010132
0.0101305
0.0101289
0.0101273
0.0101256
0.0101239
0.0101221
0.0101202
0.0101183
0.0101163
0.0101142
0.0101121
0.0101098
0.0101074
0.0101048
0.0101021
0.0100993
0.0100962
0.010093
0.0100894
0.0100856
0.0100815
0.0100769
0.0100719
0.0100665
0.0100605
0.0100542
0.0100481
0.0100436
0.0100427
0.0100481
0.0100849
0.0102922
0.0108719
0.0105743
0.00449145
0.00386457
0.00396952
0.00475944
0.011078
0.0112978
0.0106368
0.0103814
0.0103119
0.010281
0.010261
0.0102484
0.0102399
0.0102335
0.0102281
0.0102234
0.0102191
0.010215
0.0102113
0.0102079
0.0102045
0.0101996
0.0107635
0.0107488
0.0107469
0.0107479
0.0107503
0.0107544
0.0107606
0.0107689
0.0107794
0.0107921
0.010807
0.0108239
0.0108426
0.0108627
0.0108836
0.0109047
0.010925
0.0109434
0.0109592
0.0109717
0.0109796
0.0109816
0.0109769
0.0109653
0.0109469
0.010922
0.0108914
0.010856
0.0108169
0.0107752
0.0107321
0.0106885
0.0106453
0.0106033
0.0105631
0.010525
0.0104894
0.0104566
0.0104265
0.0103991
0.0103744
0.010352
0.0103318
0.0103137
0.0102975
0.0102829
0.0102699
0.0102581
0.0102475
0.010238
0.0102294
0.0102217
0.0102146
0.0102082
0.0102024
0.0101971
0.0101923
0.0101878
0.0101838
0.0101801
0.0101766
0.0101735
0.0101705
0.0101678
0.0101653
0.0101629
0.0101607
0.0101586
0.0101566
0.0101548
0.010153
0.0101512
0.0101495
0.0101479
0.0101462
0.0101447
0.0101431
0.0101415
0.0101399
0.0101383
0.0101367
0.0101351
0.0101334
0.0101317
0.01013
0.0101282
0.0101264
0.0101245
0.0101225
0.0101205
0.0101184
0.0101162
0.0101139
0.0101114
0.0101089
0.0101061
0.0101032
0.0101001
0.0100967
0.0100931
0.0100891
0.0100848
0.01008
0.0100746
0.0100686
0.0100619
0.0100541
0.0100453
0.0100349
0.0100228
0.0100083
0.00999058
0.00996712
0.00993136
0.00987307
0.00978281
0.00957685
0.00876713
0.00711599
0.00681675
0.00694529
0.00744058
0.00916593
0.00993688
0.0100988
0.0101572
0.01019
0.0102039
0.0102085
0.01021
0.0102103
0.0102099
0.010209
0.0102078
0.0102063
0.0102046
0.0102029
0.0102013
0.0101993
0.0101945
0.0107673
0.0107501
0.010748
0.010749
0.0107511
0.0107549
0.0107606
0.0107683
0.0107781
0.0107899
0.0108038
0.0108197
0.0108373
0.0108563
0.0108762
0.0108962
0.0109154
0.0109327
0.0109477
0.0109597
0.010967
0.0109685
0.0109635
0.0109517
0.0109332
0.0109084
0.0108779
0.0108428
0.0108042
0.010763
0.0107206
0.0106778
0.0106355
0.0105946
0.0105554
0.0105185
0.0104841
0.0104524
0.0104234
0.0103971
0.0103732
0.0103517
0.0103324
0.010315
0.0102993
0.0102853
0.0102726
0.0102611
0.0102508
0.0102414
0.0102329
0.0102252
0.0102181
0.0102117
0.0102057
0.0102003
0.0101953
0.0101907
0.0101865
0.0101826
0.010179
0.0101757
0.0101726
0.0101697
0.010167
0.0101645
0.0101621
0.0101599
0.0101578
0.0101558
0.0101539
0.010152
0.0101502
0.0101485
0.0101468
0.0101451
0.0101435
0.0101418
0.0101402
0.0101385
0.0101369
0.0101352
0.0101335
0.0101317
0.0101299
0.0101281
0.0101262
0.0101243
0.0101223
0.0101202
0.010118
0.0101158
0.0101134
0.0101108
0.0101082
0.0101054
0.0101023
0.0100991
0.0100956
0.0100918
0.0100876
0.010083
0.010078
0.0100723
0.0100659
0.0100586
0.0100502
0.0100405
0.0100289
0.0100149
0.00999749
0.00997494
0.00994405
0.00989837
0.00982594
0.0097033
0.00947076
0.00900222
0.00836616
0.00818619
0.00828454
0.00860993
0.00930035
0.00976932
0.00998603
0.0100899
0.0101436
0.0101717
0.0101866
0.0101947
0.0101992
0.0102016
0.0102026
0.0102027
0.0102021
0.0102012
0.0102
0.0101988
0.0101971
0.0101913
0.0107671
0.010748
0.0107455
0.0107463
0.0107481
0.0107516
0.0107569
0.0107641
0.0107734
0.0107847
0.0107981
0.0108135
0.0108307
0.0108493
0.0108689
0.0108887
0.0109077
0.0109248
0.0109399
0.0109519
0.0109591
0.0109603
0.0109548
0.0109425
0.0109233
0.0108978
0.0108666
0.0108309
0.0107917
0.0107503
0.0107077
0.010665
0.010623
0.0105825
0.0105441
0.010508
0.0104746
0.0104439
0.0104159
0.0103906
0.0103678
0.0103472
0.0103288
0.0103123
0.0102974
0.010284
0.0102719
0.010261
0.0102511
0.0102421
0.0102339
0.0102264
0.0102195
0.0102131
0.0102073
0.0102019
0.0101969
0.0101923
0.010188
0.0101841
0.0101804
0.010177
0.0101738
0.0101709
0.0101681
0.0101655
0.0101631
0.0101607
0.0101586
0.0101565
0.0101545
0.0101526
0.0101507
0.0101489
0.0101472
0.0101455
0.0101438
0.0101421
0.0101404
0.0101387
0.010137
0.0101353
0.0101336
0.0101318
0.01013
0.0101281
0.0101262
0.0101243
0.0101222
0.0101201
0.0101179
0.0101156
0.0101132
0.0101106
0.0101079
0.0101051
0.010102
0.0100987
0.0100951
0.0100913
0.010087
0.0100824
0.0100772
0.0100715
0.0100649
0.0100575
0.0100489
0.0100389
0.0100269
0.0100123
0.00999412
0.00997059
0.00993898
0.00989469
0.00983027
0.00973336
0.00958049
0.00933628
0.00904009
0.00894792
0.00902332
0.00922767
0.0095723
0.00983184
0.00998314
0.0100709
0.0101231
0.0101544
0.0101732
0.0101846
0.0101915
0.0101956
0.0101979
0.0101989
0.0101991
0.0101986
0.0101978
0.0101969
0.0101952
0.0101886
0.0107645
0.010744
0.0107412
0.0107418
0.0107433
0.0107464
0.0107512
0.010758
0.0107667
0.0107775
0.0107903
0.0108052
0.010822
0.0108403
0.0108597
0.0108793
0.0108981
0.0109151
0.0109301
0.0109422
0.010949
0.0109497
0.0109435
0.0109302
0.01091
0.0108834
0.0108512
0.0108146
0.0107747
0.0107327
0.0106899
0.0106472
0.0106056
0.0105657
0.0105281
0.0104931
0.0104609
0.0104315
0.0104049
0.0103809
0.0103594
0.0103402
0.010323
0.0103076
0.0102937
0.0102813
0.01027
0.0102599
0.0102506
0.0102421
0.0102343
0.0102271
0.0102205
0.0102144
0.0102087
0.0102034
0.0101984
0.0101939
0.0101896
0.0101856
0.0101819
0.0101784
0.0101752
0.0101721
0.0101693
0.0101666
0.0101641
0.0101617
0.0101594
0.0101573
0.0101552
0.0101533
0.0101513
0.0101495
0.0101477
0.0101459
0.0101442
0.0101424
0.0101407
0.010139
0.0101373
0.0101355
0.0101337
0.0101319
0.0101301
0.0101282
0.0101263
0.0101243
0.0101222
0.0101201
0.0101179
0.0101155
0.0101131
0.0101105
0.0101078
0.0101049
0.0101018
0.0100985
0.0100949
0.010091
0.0100868
0.0100821
0.0100769
0.0100711
0.0100646
0.0100571
0.0100486
0.0100386
0.0100267
0.0100123
0.00999455
0.00997207
0.00994287
0.009904
0.00985143
0.00977997
0.00968239
0.00955189
0.00941564
0.00937885
0.00943748
0.00956326
0.00974233
0.00989346
0.00999761
0.0100673
0.0101135
0.0101439
0.0101636
0.0101765
0.0101849
0.0101902
0.0101934
0.0101952
0.010196
0.010196
0.0101956
0.0101949
0.0101934
0.0101862
0.0107593
0.0107377
0.0107347
0.010735
0.0107362
0.0107388
0.0107432
0.0107495
0.0107577
0.010768
0.0107803
0.0107948
0.0108113
0.0108294
0.0108487
0.0108682
0.010887
0.0109041
0.0109192
0.0109311
0.0109376
0.0109375
0.0109303
0.0109158
0.0108941
0.010866
0.0108323
0.0107944
0.0107533
0.0107106
0.0106673
0.0106246
0.0105833
0.010544
0.0105074
0.0104736
0.0104428
0.0104149
0.0103899
0.0103676
0.0103477
0.01033
0.0103143
0.0103002
0.0102877
0.0102764
0.0102663
0.010257
0.0102486
0.0102408
0.0102336
0.0102269
0.0102207
0.0102149
0.0102094
0.0102043
0.0101995
0.010195
0.0101908
0.0101869
0.0101831
0.0101797
0.0101764
0.0101733
0.0101704
0.0101676
0.0101651
0.0101626
0.0101603
0.0101581
0.010156
0.0101539
0.010152
0.0101501
0.0101482
0.0101464
0.0101446
0.0101428
0.0101411
0.0101393
0.0101376
0.0101358
0.010134
0.0101322
0.0101303
0.0101284
0.0101265
0.0101244
0.0101224
0.0101202
0.010118
0.0101156
0.0101132
0.0101106
0.0101079
0.010105
0.0101019
0.0100986
0.010095
0.0100912
0.0100869
0.0100823
0.0100772
0.0100715
0.0100652
0.0100579
0.0100496
0.01004
0.0100287
0.0100153
0.00999898
0.0099789
0.00995379
0.00992203
0.00988177
0.00983135
0.00976985
0.00969968
0.00963885
0.00962927
0.00967439
0.00975526
0.00985422
0.0099467
0.0100195
0.0100734
0.010112
0.0101392
0.0101581
0.0101711
0.0101799
0.0101859
0.0101897
0.0101921
0.0101933
0.0101937
0.0101935
0.0101931
0.0101917
0.0101842
0.0107511
0.0107288
0.0107256
0.0107257
0.0107265
0.0107288
0.0107327
0.0107385
0.0107462
0.0107561
0.0107681
0.0107823
0.0107986
0.0108167
0.010836
0.0108557
0.0108745
0.010892
0.0109072
0.0109189
0.0109247
0.0109237
0.0109151
0.0108989
0.0108753
0.0108452
0.0108096
0.0107698
0.0107274
0.0106836
0.0106397
0.0105968
0.0105557
0.0105172
0.0104816
0.0104492
0.01042
0.010394
0.0103708
0.0103503
0.0103323
0.0103164
0.0103025
0.0102901
0.0102791
0.0102693
0.0102604
0.0102523
0.0102449
0.010238
0.0102316
0.0102256
0.0102199
0.0102145
0.0102095
0.0102047
0.0102001
0.0101958
0.0101917
0.0101878
0.0101841
0.0101807
0.0101774
0.0101743
0.0101714
0.0101686
0.010166
0.0101635
0.0101611
0.0101589
0.0101567
0.0101546
0.0101526
0.0101507
0.0101488
0.0101469
0.0101451
0.0101433
0.0101415
0.0101397
0.0101379
0.0101361
0.0101343
0.0101325
0.0101306
0.0101287
0.0101267
0.0101247
0.0101226
0.0101205
0.0101183
0.0101159
0.0101135
0.0101109
0.0101082
0.0101054
0.0101023
0.0100991
0.0100956
0.0100918
0.0100877
0.0100832
0.0100783
0.0100728
0.0100668
0.0100599
0.0100522
0.0100433
0.010033
0.0100209
0.0100067
0.00998971
0.00996929
0.00994476
0.00991556
0.0098817
0.00984437
0.00980748
0.00978152
0.00978389
0.0098177
0.00987283
0.00993414
0.00999313
0.010044
0.0100846
0.0101158
0.0101389
0.0101559
0.0101681
0.0101768
0.0101828
0.010187
0.0101896
0.0101912
0.0101919
0.0101919
0.0101917
0.0101903
0.0101828
0.01074
0.0107174
0.010714
0.0107138
0.0107143
0.0107162
0.0107197
0.0107251
0.0107324
0.0107418
0.0107535
0.0107675
0.0107838
0.010802
0.0108215
0.0108414
0.0108604
0.0108782
0.0108937
0.010905
0.0109101
0.0109077
0.0108973
0.0108789
0.0108529
0.0108203
0.0107822
0.0107404
0.0106962
0.0106511
0.0106065
0.0105634
0.0105227
0.0104851
0.0104507
0.01042
0.0103927
0.0103686
0.0103476
0.0103293
0.0103135
0.0102997
0.0102878
0.0102774
0.0102682
0.01026
0.0102527
0.010246
0.0102397
0.0102339
0.0102284
0.0102232
0.0102182
0.0102134
0.0102088
0.0102044
0.0102002
0.0101961
0.0101922
0.0101885
0.0101849
0.0101815
0.0101783
0.0101752
0.0101723
0.0101695
0.0101669
0.0101644
0.010162
0.0101597
0.0101575
0.0101553
0.0101533
0.0101513
0.0101494
0.0101475
0.0101456
0.0101438
0.010142
0.0101402
0.0101384
0.0101366
0.0101347
0.0101329
0.010131
0.0101291
0.0101271
0.0101251
0.010123
0.0101209
0.0101187
0.0101164
0.010114
0.0101115
0.0101088
0.010106
0.010103
0.0100999
0.0100965
0.0100929
0.010089
0.0100847
0.0100801
0.010075
0.0100693
0.010063
0.010056
0.010048
0.0100389
0.0100286
0.0100166
0.0100029
0.00998701
0.00996889
0.00994862
0.00992687
0.00990521
0.00988681
0.00987746
0.00988474
0.00991022
0.00994913
0.00999138
0.0100311
0.010067
0.0100975
0.0101221
0.0101413
0.010156
0.010167
0.0101751
0.010181
0.0101851
0.0101879
0.0101896
0.0101905
0.0101907
0.0101906
0.0101894
0.0101822
0.0107261
0.0107035
0.0106999
0.0106995
0.0106997
0.0107012
0.0107043
0.0107092
0.0107161
0.0107251
0.0107366
0.0107505
0.0107668
0.0107851
0.010805
0.0108252
0.0108445
0.0108627
0.0108783
0.0108891
0.0108931
0.0108891
0.0108764
0.0108553
0.0108263
0.0107906
0.0107497
0.0107054
0.0106592
0.0106127
0.0105674
0.0105243
0.0104841
0.0104475
0.0104148
0.010386
0.0103609
0.0103392
0.0103206
0.0103048
0.0102914
0.0102801
0.0102705
0.0102622
0.0102551
0.0102488
0.0102432
0.010238
0.0102332
0.0102286
0.0102242
0.0102199
0.0102158
0.0102117
0.0102076
0.0102037
0.0101998
0.0101961
0.0101924
0.0101889
0.0101855
0.0101822
0.0101791
0.010176
0.0101731
0.0101704
0.0101677
0.0101652
0.0101628
0.0101605
0.0101582
0.0101561
0.010154
0.010152
0.01015
0.0101481
0.0101462
0.0101444
0.0101425
0.0101407
0.0101389
0.0101371
0.0101352
0.0101334
0.0101315
0.0101296
0.0101276
0.0101256
0.0101236
0.0101215
0.0101193
0.010117
0.0101147
0.0101122
0.0101096
0.0101069
0.0101041
0.0101011
0.0100978
0.0100944
0.0100907
0.0100867
0.0100824
0.0100778
0.0100726
0.010067
0.0100608
0.0100538
0.0100461
0.0100375
0.0100279
0.0100172
0.0100053
0.00999247
0.009979
0.00996568
0.0099539
0.00994583
0.00994461
0.00995361
0.00997336
0.0100013
0.0100323
0.010061
0.0100871
0.01011
0.0101294
0.0101451
0.0101576
0.0101672
0.0101746
0.0101801
0.0101841
0.0101869
0.0101886
0.0101896
0.0101899
0.0101899
0.0101889
0.0101823
0.0107094
0.0106871
0.0106835
0.0106828
0.0106827
0.0106838
0.0106865
0.0106909
0.0106974
0.0107061
0.0107173
0.0107311
0.0107475
0.0107661
0.0107863
0.0108069
0.0108265
0.0108451
0.0108609
0.010871
0.0108736
0.0108674
0.010852
0.0108276
0.010795
0.0107558
0.0107116
0.0106645
0.0106161
0.0105683
0.0105223
0.0104793
0.0104399
0.0104048
0.0103739
0.0103474
0.0103249
0.0103059
0.0102901
0.0102771
0.0102664
0.0102578
0.0102508
0.010245
0.0102401
0.0102359
0.0102322
0.0102288
0.0102255
0.0102223
0.0102191
0.0102159
0.0102126
0.0102093
0.0102059
0.0102025
0.0101991
0.0101958
0.0101924
0.0101891
0.0101859
0.0101828
0.0101797
0.0101768
0.0101739
0.0101712
0.0101686
0.0101661
0.0101636
0.0101613
0.010159
0.0101569
0.0101548
0.0101527
0.0101507
0.0101488
0.0101469
0.010145
0.0101432
0.0101413
0.0101395
0.0101377
0.0101358
0.010134
0.0101321
0.0101302
0.0101282
0.0101263
0.0101243
0.0101222
0.01012
0.0101178
0.0101156
0.0101132
0.0101107
0.0101081
0.0101054
0.0101025
0.0100995
0.0100963
0.0100929
0.0100893
0.0100853
0.0100811
0.0100766
0.0100717
0.0100663
0.0100605
0.0100541
0.0100472
0.0100397
0.0100317
0.0100232
0.0100145
0.010006
0.00999847
0.00999286
0.00999057
0.00999332
0.0100026
0.0100183
0.0100391
0.0100621
0.0100843
0.0101041
0.0101217
0.0101369
0.0101497
0.0101601
0.0101685
0.010175
0.01018
0.0101837
0.0101864
0.0101882
0.0101892
0.0101896
0.0101897
0.0101888
0.010183
0.0106901
0.0106684
0.0106647
0.0106639
0.0106635
0.0106642
0.0106664
0.0106704
0.0106764
0.0106847
0.0106956
0.0107093
0.0107258
0.0107447
0.0107654
0.0107865
0.0108066
0.0108254
0.0108412
0.0108504
0.0108513
0.0108425
0.0108237
0.0107954
0.0107586
0.0107153
0.0106675
0.0106173
0.0105668
0.0105176
0.0104712
0.0104286
0.0103904
0.010357
0.0103285
0.0103047
0.0102851
0.0102692
0.0102565
0.0102466
0.010239
0.0102333
0.0102291
0.0102259
0.0102235
0.0102216
0.0102199
0.0102184
0.0102168
0.0102151
0.0102132
0.0102111
0.0102089
0.0102064
0.0102038
0.010201
0.0101981
0.0101952
0.0101922
0.0101892
0.0101862
0.0101832
0.0101803
0.0101775
0.0101747
0.010172
0.0101694
0.0101669
0.0101645
0.0101622
0.0101599
0.0101577
0.0101556
0.0101535
0.0101515
0.0101495
0.0101476
0.0101457
0.0101439
0.010142
0.0101402
0.0101383
0.0101365
0.0101346
0.0101328
0.0101309
0.010129
0.010127
0.0101251
0.010123
0.0101209
0.0101188
0.0101166
0.0101143
0.010112
0.0101095
0.010107
0.0101043
0.0101015
0.0100986
0.0100954
0.0100922
0.0100887
0.010085
0.010081
0.0100768
0.0100724
0.0100676
0.0100625
0.0100572
0.0100516
0.0100458
0.0100401
0.0100346
0.0100297
0.010026
0.0100242
0.0100252
0.0100298
0.0100386
0.0100515
0.0100675
0.010085
0.0101022
0.0101181
0.010132
0.0101441
0.0101545
0.0101632
0.0101704
0.0101761
0.0101806
0.010184
0.0101865
0.0101882
0.0101892
0.0101897
0.0101899
0.0101892
0.0101842
0.0106684
0.0106475
0.0106439
0.0106428
0.0106421
0.0106424
0.0106441
0.0106475
0.010653
0.0106609
0.0106716
0.0106851
0.0107017
0.010721
0.0107422
0.0107639
0.0107845
0.0108036
0.0108191
0.0108273
0.010826
0.0108141
0.0107913
0.0107584
0.0107169
0.010669
0.0106172
0.0105639
0.0105112
0.0104608
0.0104143
0.0103725
0.0103359
0.0103048
0.0102791
0.0102584
0.0102421
0.0102296
0.0102204
0.0102139
0.0102096
0.0102071
0.0102059
0.0102055
0.0102057
0.0102062
0.0102068
0.0102072
0.0102074
0.0102072
0.0102068
0.0102059
0.0102047
0.0102032
0.0102013
0.0101992
0.0101969
0.0101944
0.0101918
0.0101891
0.0101864
0.0101836
0.0101809
0.0101782
0.0101755
0.0101729
0.0101703
0.0101678
0.0101654
0.0101631
0.0101608
0.0101586
0.0101564
0.0101544
0.0101523
0.0101504
0.0101484
0.0101465
0.0101446
0.0101428
0.0101409
0.0101391
0.0101372
0.0101354
0.0101335
0.0101317
0.0101298
0.0101279
0.010126
0.010124
0.010122
0.0101199
0.0101178
0.0101157
0.0101134
0.0101111
0.0101088
0.0101063
0.0101037
0.0101011
0.0100983
0.0100954
0.0100924
0.0100892
0.0100858
0.0100824
0.0100787
0.010075
0.0100711
0.0100671
0.0100631
0.0100593
0.0100557
0.0100525
0.0100502
0.0100491
0.0100497
0.0100524
0.0100578
0.010066
0.0100768
0.0100895
0.0101031
0.0101167
0.0101294
0.0101409
0.0101508
0.0101594
0.0101667
0.0101727
0.0101777
0.0101816
0.0101847
0.010187
0.0101886
0.0101897
0.0101902
0.0101905
0.01019
0.010186
0.0106443
0.0106247
0.0106211
0.0106198
0.0106187
0.0106185
0.0106197
0.0106226
0.0106275
0.0106348
0.0106451
0.0106585
0.0106752
0.0106949
0.0107166
0.0107389
0.0107602
0.0107796
0.0107948
0.0108016
0.0107978
0.0107821
0.0107546
0.0107164
0.0106695
0.0106167
0.0105606
0.0105041
0.0104494
0.0103983
0.010352
0.0103115
0.0102771
0.0102488
0.0102264
0.0102093
0.0101967
0.0101879
0.0101824
0.0101796
0.0101789
0.0101797
0.0101817
0.0101843
0.0101872
0.0101902
0.010193
0.0101955
0.0101975
0.010199
0.0101999
0.0102004
0.0102003
0.0101997
0.0101987
0.0101973
0.0101955
0.0101936
0.0101914
0.010189
0.0101865
0.010184
0.0101814
0.0101788
0.0101762
0.0101737
0.0101712
0.0101687
0.0101663
0.010164
0.0101617
0.0101595
0.0101574
0.0101553
0.0101532
0.0101512
0.0101492
0.0101473
0.0101454
0.0101436
0.0101417
0.0101399
0.010138
0.0101362
0.0101344
0.0101326
0.0101307
0.0101289
0.010127
0.0101251
0.0101231
0.0101212
0.0101192
0.0101171
0.0101151
0.0101129
0.0101107
0.0101085
0.0101062
0.0101038
0.0101014
0.0100988
0.0100962
0.0100936
0.0100908
0.0100881
0.0100852
0.0100824
0.0100795
0.0100768
0.0100741
0.0100718
0.0100699
0.0100685
0.010068
0.0100686
0.0100706
0.0100742
0.0100798
0.0100873
0.0100965
0.0101069
0.0101178
0.0101287
0.010139
0.0101485
0.0101568
0.010164
0.0101702
0.0101753
0.0101796
0.0101831
0.0101858
0.0101879
0.0101895
0.0101905
0.0101911
0.0101914
0.0101911
0.0101882
0.0106181
0.0106
0.0105965
0.010595
0.0105936
0.0105929
0.0105934
0.0105956
0.0105998
0.0106065
0.0106163
0.0106295
0.0106462
0.0106663
0.0106886
0.0107116
0.0107336
0.0107534
0.0107682
0.0107734
0.0107666
0.0107465
0.0107135
0.0106693
0.0106165
0.0105583
0.0104979
0.0104383
0.0103819
0.0103304
0.0102851
0.0102465
0.0102148
0.0101899
0.0101714
0.0101582
0.0101496
0.0101449
0.0101434
0.0101445
0.0101475
0.0101518
0.010157
0.0101627
0.0101684
0.0101739
0.010179
0.0101835
0.0101874
0.0101905
0.010193
0.0101947
0.0101957
0.0101961
0.0101959
0.0101952
0.0101941
0.0101926
0.0101908
0.0101888
0.0101866
0.0101843
0.0101819
0.0101795
0.010177
0.0101745
0.0101721
0.0101697
0.0101673
0.010165
0.0101627
0.0101605
0.0101583
0.0101562
0.0101541
0.0101521
0.0101501
0.0101482
0.0101463
0.0101444
0.0101426
0.0101407
0.0101389
0.0101371
0.0101353
0.0101335
0.0101317
0.0101299
0.0101281
0.0101262
0.0101244
0.0101225
0.0101206
0.0101187
0.0101168
0.0101148
0.0101128
0.0101108
0.0101088
0.0101067
0.0101046
0.0101024
0.0101003
0.0100981
0.0100959
0.0100938
0.0100917
0.0100896
0.0100877
0.010086
0.0100845
0.0100833
0.0100827
0.0100826
0.0100833
0.010085
0.0100879
0.010092
0.0100975
0.0101043
0.0101122
0.0101209
0.0101299
0.0101389
0.0101473
0.0101552
0.0101622
0.0101683
0.0101736
0.010178
0.0101818
0.0101848
0.0101873
0.0101892
0.0101906
0.0101916
0.0101923
0.0101927
0.0101926
0.0101907
0.0105901
0.0105739
0.0105706
0.0105688
0.0105669
0.0105657
0.0105655
0.0105668
0.0105701
0.0105761
0.0105853
0.0105981
0.0106148
0.0106352
0.0106583
0.0106821
0.0107048
0.0107251
0.0107394
0.0107428
0.0107325
0.0107073
0.0106681
0.0106172
0.0105579
0.0104941
0.0104294
0.010367
0.0103093
0.0102581
0.0102143
0.0101783
0.01015
0.0101291
0.0101149
0.0101062
0.0101019
0.0101015
0.0101042
0.0101093
0.0101161
0.010124
0.0101325
0.0101412
0.0101497
0.0101577
0.0101651
0.0101717
0.0101774
0.0101822
0.010186
0.010189
0.0101911
0.0101924
0.0101931
0.0101931
0.0101926
0.0101916
0.0101903
0.0101886
0.0101867
0.0101847
0.0101825
0.0101801
0.0101778
0.0101754
0.010173
0.0101706
0.0101683
0.0101659
0.0101637
0.0101615
0.0101593
0.0101572
0.0101551
0.0101531
0.0101511
0.0101491
0.0101472
0.0101453
0.0101435
0.0101417
0.0101398
0.0101381
0.0101363
0.0101345
0.0101327
0.010131
0.0101292
0.0101275
0.0101257
0.0101239
0.0101222
0.0101204
0.0101186
0.0101168
0.010115
0.0101132
0.0101115
0.0101097
0.0101079
0.0101061
0.0101044
0.0101027
0.010101
0.0100995
0.010098
0.0100967
0.0100955
0.0100946
0.010094
0.0100938
0.0100941
0.010095
0.0100966
0.010099
0.0101023
0.0101066
0.0101119
0.0101181
0.010125
0.0101324
0.01014
0.0101475
0.0101546
0.0101611
0.010167
0.0101723
0.0101768
0.0101807
0.010184
0.0101867
0.0101889
0.0101907
0.010192
0.010193
0.0101937
0.0101942
0.0101943
0.0101935
0.0105606
0.0105467
0.0105435
0.0105414
0.0105391
0.0105371
0.010536
0.0105364
0.0105387
0.0105437
0.010552
0.0105643
0.010581
0.0106017
0.0106256
0.0106504
0.010674
0.0106949
0.0107088
0.0107101
0.0106957
0.0106648
0.0106185
0.0105602
0.0104939
0.0104243
0.0103555
0.0102908
0.0102325
0.0101823
0.0101408
0.0101082
0.0100841
0.0100677
0.0100582
0.0100542
0.0100545
0.0100586
0.0100656
0.0100748
0.0100855
0.010097
0.0101087
0.0101204
0.0101316
0.0101421
0.0101517
0.0101602
0.0101677
0.010174
0.0101793
0.0101835
0.0101867
0.0101889
0.0101904
0.0101911
0.0101912
0.0101907
0.0101898
0.0101885
0.0101869
0.010185
0.010183
0.0101808
0.0101786
0.0101763
0.0101739
0.0101716
0.0101693
0.010167
0.0101647
0.0101625
0.0101603
0.0101582
0.0101561
0.010154
0.010152
0.0101501
0.0101482
0.0101463
0.0101444
0.0101426
0.0101408
0.010139
0.0101373
0.0101355
0.0101338
0.0101321
0.0101304
0.0101287
0.0101271
0.0101254
0.0101238
0.0101221
0.0101205
0.0101189
0.0101173
0.0101157
0.0101142
0.0101127
0.0101112
0.0101098
0.0101085
0.0101072
0.010106
0.010105
0.0101041
0.0101034
0.0101029
0.0101027
0.0101028
0.0101034
0.0101044
0.0101059
0.0101081
0.010111
0.0101145
0.0101188
0.0101239
0.0101295
0.0101356
0.010142
0.0101485
0.0101549
0.0101609
0.0101665
0.0101715
0.010176
0.01018
0.0101834
0.0101863
0.0101887
0.0101907
0.0101924
0.0101937
0.0101947
0.0101954
0.0101959
0.0101962
0.0101964
0.01053
0.0105186
0.0105156
0.0105132
0.0105104
0.0105076
0.0105055
0.0105047
0.0105057
0.0105095
0.0105168
0.0105284
0.0105448
0.0105659
0.0105906
0.0106166
0.0106414
0.0106631
0.0106766
0.0106756
0.0106567
0.0106192
0.010565
0.0104986
0.010425
0.0103497
0.0102771
0.0102106
0.0101527
0.0101043
0.0100661
0.0100376
0.0100182
0.0100071
0.0100026
0.0100033
0.0100084
0.0100172
0.0100286
0.0100419
0.0100563
0.0100713
0.0100862
0.0101007
0.0101145
0.0101273
0.010139
0.0101494
0.0101586
0.0101664
0.010173
0.0101783
0.0101825
0.0101857
0.0101879
0.0101892
0.0101899
0.0101899
0.0101893
0.0101884
0.010187
0.0101854
0.0101836
0.0101815
0.0101794
0.0101772
0.0101749
0.0101726
0.0101703
0.010168
0.0101657
0.0101635
0.0101613
0.0101592
0.0101571
0.010155
0.010153
0.010151
0.0101491
0.0101472
0.0101454
0.0101436
0.0101418
0.01014
0.0101383
0.0101366
0.0101349
0.0101333
0.0101317
0.0101301
0.0101285
0.0101269
0.0101254
0.0101239
0.0101224
0.010121
0.0101196
0.0101182
0.0101169
0.0101157
0.0101145
0.0101134
0.0101125
0.0101116
0.0101108
0.0101103
0.0101099
0.0101097
0.0101098
0.0101101
0.0101109
0.010112
0.0101135
0.0101155
0.0101181
0.0101212
0.0101249
0.0101291
0.0101339
0.0101391
0.0101445
0.0101502
0.0101558
0.0101613
0.0101665
0.0101713
0.0101757
0.0101796
0.010183
0.010186
0.0101886
0.0101908
0.0101926
0.0101942
0.0101954
0.0101964
0.0101972
0.0101977
0.0101982
0.0101994
0.0104985
0.0104901
0.0104873
0.0104846
0.0104812
0.0104776
0.0104743
0.010472
0.0104716
0.0104739
0.0104799
0.0104905
0.0105064
0.0105278
0.0105535
0.010581
0.0106071
0.0106299
0.0106433
0.01064
0.010616
0.010571
0.0105081
0.0104329
0.0103518
0.0102709
0.0101951
0.0101278
0.010071
0.0100256
0.00999149
0.00996794
0.00995399
0.0099484
0.00994914
0.00995483
0.00996487
0.00997826
0.00999401
0.0100113
0.0100293
0.0100475
0.0100654
0.0100826
0.0100988
0.0101138
0.0101274
0.0101396
0.0101502
0.0101594
0.0101672
0.0101736
0.0101787
0.0101827
0.0101856
0.0101876
0.0101887
0.0101892
0.010189
0.0101883
0.0101872
0.0101858
0.0101841
0.0101823
0.0101802
0.0101781
0.0101758
0.0101736
0.0101713
0.010169
0.0101668
0.0101645
0.0101623
0.0101602
0.0101581
0.010156
0.010154
0.010152
0.0101501
0.0101482
0.0101464
0.0101445
0.0101428
0.0101411
0.0101394
0.0101377
0.0101361
0.0101345
0.0101329
0.0101314
0.0101299
0.0101284
0.010127
0.0101257
0.0101243
0.0101231
0.0101219
0.0101207
0.0101196
0.0101187
0.0101178
0.010117
0.0101163
0.0101158
0.0101155
0.0101153
0.0101153
0.0101156
0.0101161
0.010117
0.0101181
0.0101197
0.0101216
0.010124
0.0101268
0.0101301
0.0101338
0.0101379
0.0101424
0.0101471
0.0101521
0.0101571
0.0101621
0.0101669
0.0101714
0.0101756
0.0101794
0.0101829
0.0101859
0.0101886
0.0101909
0.0101929
0.0101946
0.010196
0.0101972
0.0101982
0.0101991
0.0101997
0.0102004
0.0102024
0.0104667
0.0104616
0.0104591
0.0104561
0.010452
0.0104474
0.0104428
0.0104389
0.0104367
0.0104371
0.0104414
0.0104507
0.0104659
0.0104875
0.0105143
0.0105437
0.0105716
0.010596
0.0106096
0.0106039
0.0105743
0.0105209
0.0104482
0.0103636
0.0102749
0.0101889
0.0101107
0.0100436
0.00998917
0.00994772
0.00991862
0.00990075
0.00989272
0.00989285
0.009899
0.00990978
0.00992468
0.00994259
0.00996247
0.00998347
0.0100049
0.0100261
0.0100468
0.0100664
0.0100848
0.0101017
0.0101171
0.0101308
0.0101428
0.0101532
0.0101621
0.0101694
0.0101754
0.0101801
0.0101836
0.0101861
0.0101877
0.0101886
0.0101888
0.0101884
0.0101875
0.0101863
0.0101848
0.010183
0.0101811
0.010179
0.0101768
0.0101746
0.0101723
0.0101701
0.0101678
0.0101656
0.0101634
0.0101612
0.0101591
0.010157
0.010155
0.010153
0.010151
0.0101492
0.0101473
0.0101455
0.0101438
0.0101421
0.0101404
0.0101388
0.0101372
0.0101357
0.0101342
0.0101327
0.0101313
0.01013
0.0101287
0.0101274
0.0101262
0.0101251
0.0101241
0.0101231
0.0101223
0.0101215
0.0101209
0.0101204
0.01012
0.0101198
0.0101198
0.01012
0.0101204
0.010121
0.010122
0.0101232
0.0101247
0.0101266
0.0101288
0.0101314
0.0101344
0.0101377
0.0101414
0.0101454
0.0101496
0.010154
0.0101586
0.0101631
0.0101675
0.0101718
0.0101758
0.0101795
0.0101829
0.010186
0.0101887
0.0101911
0.0101932
0.010195
0.0101966
0.0101979
0.0101991
0.0102001
0.010201
0.0102017
0.0102025
0.0102053
0.0104349
0.0104335
0.0104314
0.010428
0.0104233
0.0104177
0.0104116
0.0104058
0.0104014
0.0103996
0.0104018
0.0104094
0.0104235
0.0104451
0.0104732
0.0105049
0.0105353
0.0105617
0.0105762
0.0105682
0.0105324
0.0104696
0.0103862
0.0102916
0.0101952
0.0101046
0.0100251
0.0099594
0.00990857
0.00987218
0.00984903
0.00983751
0.00983587
0.00984167
0.00985303
0.00986898
0.00988864
0.00991084
0.00993458
0.00995902
0.00998351
0.0100075
0.0100306
0.0100524
0.0100727
0.0100913
0.0101081
0.0101232
0.0101364
0.0101479
0.0101577
0.0101658
0.0101725
0.0101779
0.010182
0.010185
0.010187
0.0101882
0.0101887
0.0101885
0.0101879
0.0101868
0.0101854
0.0101838
0.0101819
0.0101799
0.0101778
0.0101756
0.0101733
0.0101711
0.0101688
0.0101666
0.0101644
0.0101622
0.0101601
0.010158
0.0101559
0.0101539
0.010152
0.0101501
0.0101483
0.0101465
0.0101447
0.0101431
0.0101414
0.0101398
0.0101383
0.0101368
0.0101354
0.010134
0.0101327
0.0101314
0.0101302
0.0101291
0.0101281
0.0101271
0.0101262
0.0101255
0.0101248
0.0101243
0.0101239
0.0101236
0.0101235
0.0101236
0.0101239
0.0101244
0.0101251
0.010126
0.0101273
0.0101288
0.0101306
0.0101327
0.0101352
0.0101379
0.010141
0.0101443
0.010148
0.0101518
0.0101558
0.01016
0.0101641
0.0101682
0.0101723
0.0101761
0.0101797
0.010183
0.0101861
0.0101889
0.0101913
0.0101935
0.0101954
0.0101971
0.0101986
0.0101998
0.010201
0.010202
0.010203
0.0102037
0.0102047
0.0102082
0.0104036
0.0104063
0.0104046
0.0104009
0.0103956
0.0103889
0.0103812
0.0103733
0.0103664
0.0103619
0.0103615
0.0103667
0.0103793
0.0104007
0.0104303
0.0104649
0.0104987
0.0105276
0.010544
0.0105342
0.0104916
0.0104182
0.0103228
0.0102176
0.0101137
0.0100193
0.0099396
0.0098767
0.00983074
0.0098005
0.00978408
0.00977939
0.00978427
0.0097958
0.00981227
0.00983319
0.00985734
0.0098835
0.00991072
0.00993824
0.00996542
0.00999178
0.0100169
0.0100406
0.0100625
0.0100826
0.0101007
0.0101169
0.0101311
0.0101435
0.0101541
0.0101629
0.0101702
0.0101761
0.0101807
0.0101841
0.0101865
0.010188
0.0101887
0.0101888
0.0101883
0.0101874
0.0101861
0.0101845
0.0101828
0.0101808
0.0101787
0.0101765
0.0101743
0.0101721
0.0101698
0.0101676
0.0101653
0.0101631
0.010161
0.0101589
0.0101569
0.0101549
0.0101529
0.010151
0.0101492
0.0101474
0.0101457
0.010144
0.0101424
0.0101409
0.0101394
0.0101379
0.0101366
0.0101352
0.010134
0.0101328
0.0101318
0.0101307
0.0101298
0.010129
0.0101283
0.0101277
0.0101272
0.0101269
0.0101267
0.0101267
0.0101268
0.0101271
0.0101277
0.0101284
0.0101294
0.0101306
0.0101321
0.0101338
0.0101359
0.0101382
0.0101408
0.0101436
0.0101467
0.0101501
0.0101537
0.0101574
0.0101612
0.0101651
0.0101689
0.0101727
0.0101764
0.0101799
0.0101832
0.0101862
0.010189
0.0101915
0.0101937