/*--------------------------------*- C++ -*----------------------------------*\
| =========                 |                                                 |
| \\      /  F ield         | OpenFOAM: The Open Source CFD Toolbox           |
|  \\    /   O peration     | Version:  2306                                  |
|   \\  /    A nd           | Website:  www.openfoam.com                      |
|    \\/     M anipulation  |                                                 |
\*---------------------------------------------------------------------------*/
FoamFile
{
    version     2.0;
    format      ascii;
    arch        "LSB;label=32;scalar=64";
    class       surfaceScalarField;
    location    "40";
    object      phi;
}
// * * * * * * * * * * * * * * * * * * * * * * * * * * * * * * * * * * * * * //

dimensions      [0 3 -1 0 0 0 0];

oriented        oriented;

internalField   nonuniform List<scalar> 
8788
(
-6.39371e-07
6.39371e-07
-1.49637e-06
8.56994e-07
-2.46835e-06
9.71983e-07
-3.51155e-06
1.0432e-06
-4.57974e-06
1.06819e-06
-5.62614e-06
1.0464e-06
-6.60599e-06
9.79858e-07
-7.47626e-06
8.70267e-07
-8.19487e-06
7.18612e-07
-8.72055e-06
5.2568e-07
-9.01302e-06
2.92473e-07
-9.03369e-06
2.06658e-08
-8.7457e-06
-2.87991e-07
-8.11651e-06
-6.29194e-07
-7.12011e-06
-9.96398e-07
-5.74006e-06
-1.38004e-06
-3.97213e-06
-1.76793e-06
-1.8264e-06
-2.14573e-06
6.73307e-07
-2.49971e-06
3.48102e-06
-2.80772e-06
6.52825e-06
-3.04723e-06
9.73555e-06
-3.2073e-06
1.3019e-05
-3.28349e-06
1.62945e-05
-3.27548e-06
1.94818e-05
-3.18724e-06
2.25082e-05
-3.02648e-06
2.5312e-05
-2.80374e-06
2.78433e-05
-2.53136e-06
3.00658e-05
-2.22247e-06
3.1956e-05
-1.89016e-06
3.35027e-05
-1.54676e-06
3.47061e-05
-1.20336e-06
3.55756e-05
-8.69489e-07
3.61285e-05
-5.52943e-07
3.63882e-05
-2.59704e-07
3.63817e-05
6.48447e-09
3.61379e-05
2.43856e-07
3.56856e-05
4.52284e-07
3.5054e-05
6.31647e-07
3.42715e-05
7.82481e-07
3.33656e-05
9.05845e-07
3.23624e-05
1.00323e-06
3.12859e-05
1.07648e-06
3.01583e-05
1.12764e-06
2.89993e-05
1.15895e-06
2.78266e-05
1.17268e-06
2.66555e-05
1.17113e-06
2.5499e-05
1.15652e-06
2.4368e-05
1.13099e-06
2.32715e-05
1.09652e-06
2.22165e-05
1.05496e-06
2.12086e-05
1.00796e-06
2.02516e-05
9.56991e-07
1.93482e-05
9.03365e-07
1.85e-05
8.48202e-07
1.77076e-05
7.92458e-07
1.69706e-05
7.36936e-07
1.62883e-05
6.82295e-07
1.56593e-05
6.29068e-07
1.50816e-05
5.7767e-07
1.45532e-05
5.28418e-07
1.40716e-05
4.81538e-07
1.36344e-05
4.37183e-07
1.3239e-05
3.9544e-07
1.28827e-05
3.56342e-07
1.25628e-05
3.19878e-07
1.22768e-05
2.85999e-07
1.20222e-05
2.54626e-07
1.17965e-05
2.25657e-07
1.15975e-05
1.98971e-07
1.14231e-05
1.74435e-07
1.12712e-05
1.51905e-07
1.114e-05
1.31231e-07
1.10277e-05
1.12257e-07
1.09329e-05
9.4827e-08
1.08541e-05
7.87841e-08
1.07901e-05
6.39717e-08
1.07399e-05
5.02351e-08
1.07025e-05
3.74215e-08
1.06771e-05
2.53807e-08
1.06631e-05
1.39658e-08
1.06601e-05
3.03573e-09
1.06676e-05
-7.54949e-09
1.06856e-05
-1.79384e-08
1.07139e-05
-2.82866e-08
1.07526e-05
-3.87493e-08
1.08021e-05
-4.94885e-08
1.08628e-05
-6.06757e-08
1.09353e-05
-7.24954e-08
1.10204e-05
-8.51494e-08
1.11193e-05
-9.88608e-08
1.12332e-05
-1.1388e-07
1.13637e-05
-1.30494e-07
1.15127e-05
-1.49029e-07
1.16826e-05
-1.69868e-07
1.1876e-05
-1.93464e-07
1.20964e-05
-2.20351e-07
1.23475e-05
-2.51174e-07
1.26343e-05
-2.86714e-07
1.29622e-05
-3.27925e-07
1.33382e-05
-3.75985e-07
1.37705e-05
-4.32356e-07
1.42694e-05
-4.9887e-07
1.48472e-05
-5.77833e-07
1.55194e-05
-6.72169e-07
1.6305e-05
-7.85587e-07
1.72278e-05
-9.22802e-07
1.83176e-05
-1.08978e-06
1.96116e-05
-1.29405e-06
2.11565e-05
-1.54493e-06
2.30112e-05
-1.85468e-06
2.52566e-05
-2.2454e-06
2.80321e-05
-2.77546e-06
3.16207e-05
-3.58858e-06
3.65821e-05
-4.9614e-06
4.4405e-05
-7.82293e-06
6.24429e-05
-1.80379e-05
0.000125042
-6.2599e-05
6.45349e-05
-0.000162408
9.00364e-06
-0.000214223
-4.82992e-05
-0.000217877
-0.000112429
-0.000168021
-4.78129e-05
-6.46156e-05
-2.90647e-05
-1.87482e-05
-2.10823e-05
-7.98232e-06
-1.61978e-05
-4.88457e-06
-1.27844e-05
-3.41334e-06
-1.02131e-05
-2.57132e-06
-8.16932e-06
-2.04377e-06
-6.50344e-06
-1.66589e-06
-5.13341e-06
-1.37003e-06
-4.0025e-06
-1.13091e-06
-3.0673e-06
-9.35205e-07
-2.29422e-06
-7.73072e-07
-1.65763e-06
-6.36595e-07
-1.13825e-06
-5.19378e-07
-7.21766e-07
-4.16485e-07
-3.9679e-07
-3.24976e-07
-1.53754e-07
-2.43036e-07
-1.53754e-07
-8.61893e-07
1.50126e-06
-1.87822e-06
1.87332e-06
-3.03545e-06
2.12921e-06
-4.26894e-06
2.27669e-06
-5.52274e-06
2.32199e-06
-6.74405e-06
2.2677e-06
-7.88092e-06
2.11673e-06
-8.88231e-06
1.87166e-06
-9.69812e-06
1.53442e-06
-1.02793e-05
1.10684e-06
-1.05782e-05
5.91362e-07
-1.05492e-05
-8.31165e-09
-1.01502e-05
-6.86947e-07
-9.34439e-06
-1.43504e-06
-8.10323e-06
-2.23756e-06
-6.4096e-06
-3.07367e-06
-4.26042e-06
-3.91712e-06
-1.66853e-06
-4.73761e-06
1.33568e-06
-5.50392e-06
4.69168e-06
-6.16372e-06
8.31879e-06
-6.67433e-06
1.21267e-05
-7.01523e-06
1.60192e-05
-7.17602e-06
1.98999e-05
-7.15612e-06
2.36769e-05
-6.96423e-06
2.72673e-05
-6.61688e-06
3.06e-05
-6.13651e-06
3.3618e-05
-5.54931e-06
3.62786e-05
-4.88311e-06
3.85541e-05
-4.16564e-06
4.04304e-05
-3.42307e-06
4.1906e-05
-2.67897e-06
4.29902e-05
-1.95366e-06
4.37011e-05
-1.26383e-06
4.40637e-05
-6.22325e-07
4.41081e-05
-3.79195e-08
4.38668e-05
4.85122e-07
4.33734e-05
9.45711e-07
4.26616e-05
1.34347e-06
4.17647e-05
1.67935e-06
4.07151e-05
1.95548e-06
3.95434e-05
2.17492e-06
3.82784e-05
2.34149e-06
3.69465e-05
2.45954e-06
3.55717e-05
2.53377e-06
3.41753e-05
2.5691e-06
3.27759e-05
2.57044e-06
3.13898e-05
2.54262e-06
3.00306e-05
2.49028e-06
2.87093e-05
2.41777e-06
2.74351e-05
2.32912e-06
2.62151e-05
2.228e-06
2.50544e-05
2.11769e-06
2.39567e-05
2.00108e-06
2.29242e-05
1.88069e-06
2.1958e-05
1.75867e-06
2.10581e-05
1.63682e-06
2.02237e-05
1.51666e-06
1.94534e-05
1.39938e-06
1.87451e-05
1.28596e-06
1.80964e-05
1.17711e-06
1.75046e-05
1.07337e-06
1.69667e-05
9.75115e-07
1.64796e-05
8.82549e-07
1.60401e-05
7.95769e-07
1.56452e-05
7.14767e-07
1.52918e-05
6.39449e-07
1.49768e-05
5.69653e-07
1.46973e-05
5.05163e-07
1.44505e-05
4.45721e-07
1.42339e-05
3.91037e-07
1.4045e-05
3.40797e-07
1.38816e-05
2.94672e-07
1.37415e-05
2.52323e-07
1.36229e-05
2.13405e-07
1.35242e-05
1.77571e-07
1.34436e-05
1.44478e-07
1.33801e-05
1.13781e-07
1.33324e-05
8.51436e-08
1.32995e-05
5.8233e-08
1.32808e-05
3.27228e-08
1.32755e-05
8.29451e-09
1.32833e-05
-1.53623e-08
1.3304e-05
-3.85729e-08
1.33373e-05
-6.16798e-08
1.33836e-05
-8.50292e-08
1.34431e-05
-1.0898e-07
1.35164e-05
-1.33914e-07
1.36041e-05
-1.6024e-07
1.37074e-05
-1.88404e-07
1.38274e-05
-2.18901e-07
1.39658e-05
-2.52284e-07
1.41245e-05
-2.89183e-07
1.43058e-05
-3.30324e-07
1.45125e-05
-3.7655e-07
1.47479e-05
-4.28854e-07
1.50159e-05
-4.88417e-07
1.53214e-05
-5.56655e-07
1.567e-05
-6.35288e-07
1.60685e-05
-7.26415e-07
1.65251e-05
-8.3263e-07
1.70499e-05
-9.57164e-07
1.76551e-05
-1.10408e-06
1.83558e-05
-1.27853e-06
1.91708e-05
-1.48716e-06
2.01238e-05
-1.73857e-06
2.12452e-05
-2.0442e-06
2.2575e-05
-2.41953e-06
2.41672e-05
-2.88634e-06
2.60992e-05
-3.47692e-06
2.84878e-05
-4.24325e-06
3.15213e-05
-5.27888e-06
3.5516e-05
-6.77016e-06
4.10274e-05
-9.10001e-06
4.91293e-05
-1.30632e-05
6.18792e-05
-2.05729e-05
8.07638e-05
-3.69225e-05
9.13892e-05
-7.32244e-05
5.85307e-05
-0.00012955
9.45377e-06
-0.000165147
-4.07327e-05
-0.00016769
-7.50002e-05
-0.000133753
-6.37716e-05
-7.58443e-05
-4.42975e-05
-3.82224e-05
-3.11957e-05
-2.10841e-05
-2.2948e-05
-1.31323e-05
-1.74279e-05
-8.9335e-06
-1.35063e-05
-6.49289e-06
-1.05901e-05
-4.95995e-06
-8.33988e-06
-3.91613e-06
-6.55452e-06
-3.15539e-06
-5.11129e-06
-2.57414e-06
-3.93133e-06
-2.11516e-06
-2.9612e-06
-1.7432e-06
-2.16321e-06
-1.43458e-06
-1.51005e-06
-1.17254e-06
-9.81413e-07
-9.45122e-07
-5.62316e-07
-7.44074e-07
-2.42692e-07
-5.6266e-07
-3.96446e-07
-9.9617e-07
2.49743e-06
-2.17651e-06
3.05366e-06
-3.48815e-06
3.44085e-06
-4.8721e-06
3.66064e-06
-6.26889e-06
3.71878e-06
-7.6204e-06
3.61921e-06
-8.8693e-06
3.36563e-06
-9.95887e-06
2.96123e-06
-1.08332e-05
2.40872e-06
-1.14373e-05
1.71102e-06
-1.17182e-05
8.72235e-07
-1.16252e-05
-1.01316e-07
-1.1112e-05
-1.20019e-06
-1.01388e-05
-2.40818e-06
-8.67575e-06
-3.70065e-06
-6.70525e-06
-5.04418e-06
-4.22542e-06
-6.39694e-06
-1.25261e-06
-7.71043e-06
2.17534e-06
-8.93187e-06
5.985e-06
-9.97338e-06
1.00861e-05
-1.07754e-05
1.43782e-05
-1.13073e-05
1.87554e-05
-1.15532e-05
2.31121e-05
-1.15129e-05
2.73487e-05
-1.12008e-05
3.13755e-05
-1.06436e-05
3.51159e-05
-9.87689e-06
3.85085e-05
-8.94188e-06
4.15076e-05
-7.88224e-06
4.40832e-05
-6.74123e-06
4.62198e-05
-5.55966e-06
4.7915e-05
-4.37423e-06
4.9178e-05
-3.21662e-06
5.00271e-05
-2.1129e-06
5.0488e-05
-1.08328e-06
5.05921e-05
-1.41958e-07
5.03738e-05
7.03336e-07
4.98697e-05
1.44981e-06
4.91165e-05
2.09672e-06
4.81506e-05
2.64529e-06
4.70075e-05
3.09857e-06
4.57212e-05
3.46116e-06
4.43239e-05
3.73887e-06
4.2845e-05
3.93842e-06
4.13116e-05
4.06714e-06
3.9748e-05
4.13269e-06
3.81756e-05
4.14283e-06
3.6613e-05
4.10521e-06
3.50761e-05
4.02722e-06
3.3578e-05
3.91584e-06
3.21296e-05
3.77753e-06
3.07394e-05
3.61824e-06
2.94138e-05
3.44328e-06
2.81575e-05
3.25738e-06
2.69735e-05
3.06468e-06
2.58635e-05
2.86871e-06
2.48278e-05
2.67248e-06
2.3866e-05
2.4785e-06
2.29766e-05
2.28878e-06
2.21576e-05
2.10496e-06
2.14064e-05
1.92828e-06
2.07201e-05
1.75965e-06
2.00955e-05
1.59971e-06
1.95292e-05
1.44887e-06
1.90176e-05
1.30731e-06
1.85574e-05
1.17505e-06
1.81449e-05
1.05196e-06
1.77767e-05
9.378e-07
1.74496e-05
8.32244e-07
1.71605e-05
7.34884e-07
1.69062e-05
6.45262e-07
1.66842e-05
5.62876e-07
1.64916e-05
4.87199e-07
1.63263e-05
4.17686e-07
1.61859e-05
3.53779e-07
1.60686e-05
2.9492e-07
1.59725e-05
2.40547e-07
1.58962e-05
1.90106e-07
1.58383e-05
1.43048e-07
1.57977e-05
9.88311e-08
1.57735e-05
5.69231e-08
1.57649e-05
1.68022e-08
1.57716e-05
-2.204e-08
1.57932e-05
-6.01291e-08
1.58295e-05
-9.80173e-08
1.58808e-05
-1.36267e-07
1.59472e-05
-1.75463e-07
1.60295e-05
-2.16222e-07
1.61285e-05
-2.59207e-07
1.62452e-05
-3.0514e-07
1.63812e-05
-3.54819e-07
1.6538e-05
-4.09134e-07
1.67179e-05
-4.69099e-07
1.69235e-05
-5.35874e-07
1.71577e-05
-6.1081e-07
1.74244e-05
-6.95492e-07
1.77278e-05
-7.91801e-07
1.80731e-05
-9.01992e-07
1.84666e-05
-1.0288e-06
1.89157e-05
-1.17554e-06
1.94295e-05
-1.34635e-06
2.00186e-05
-1.54635e-06
2.06966e-05
-1.782e-06
2.14796e-05
-2.06156e-06
2.23881e-05
-2.39571e-06
2.34481e-05
-2.79857e-06
2.46931e-05
-3.28915e-06
2.61674e-05
-3.89387e-06
2.79319e-05
-4.65081e-06
3.00724e-05
-5.61745e-06
3.27144e-05
-6.88523e-06
3.60435e-05
-8.60798e-06
4.03296e-05
-1.10563e-05
4.59441e-05
-1.47145e-05
5.33323e-05
-2.04514e-05
6.26271e-05
-2.98677e-05
7.15695e-05
-4.58648e-05
7.04421e-05
-7.2097e-05
4.70132e-05
-0.000106121
1.04675e-05
-0.000128601
-2.68161e-05
-0.000130407
-5.12299e-05
-0.00010934
-5.23948e-05
-7.46794e-05
-4.31126e-05
-4.75045e-05
-3.34551e-05
-3.07416e-05
-2.57983e-05
-2.07891e-05
-2.00243e-05
-1.47075e-05
-1.56714e-05
-1.08458e-05
-1.23441e-05
-8.28726e-06
-9.75035e-06
-6.50985e-06
-7.68813e-06
-5.21762e-06
-6.02143e-06
-4.24083e-06
-4.65839e-06
-3.4782e-06
-3.53562e-06
-2.86598e-06
-2.60823e-06
-2.36197e-06
-1.84369e-06
-1.93709e-06
-1.21781e-06
-1.571e-06
-7.12184e-07
-1.2497e-06
-3.11478e-07
-9.63366e-07
-7.07924e-07
-1.10332e-06
3.60076e-06
-2.40392e-06
4.35426e-06
-3.83614e-06
4.87307e-06
-5.33613e-06
5.16063e-06
-6.84057e-06
5.22322e-06
-8.28727e-06
5.06591e-06
-9.61474e-06
4.69311e-06
-1.0762e-05
4.10852e-06
-1.16688e-05
3.31549e-06
-1.22758e-05
2.31799e-06
-1.25255e-05
1.12197e-06
-1.23635e-05
-2.63341e-07
-1.174e-05
-1.82368e-06
-1.06129e-05
-3.53526e-06
-8.95059e-06
-5.36296e-06
-6.7351e-06
-7.25967e-06
-3.96532e-06
-9.16673e-06
-6.60076e-07
-1.10157e-05
3.13369e-06
-1.27256e-05
7.32975e-06
-1.41694e-05
1.18293e-05
-1.5275e-05
1.65224e-05
-1.60004e-05
2.12942e-05
-1.6325e-05
2.60315e-05
-1.62502e-05
3.06282e-05
-1.57976e-05
3.49901e-05
-1.50055e-05
3.90377e-05
-1.39245e-05
4.2708e-05
-1.26122e-05
4.59547e-05
-1.11289e-05
4.87478e-05
-9.53433e-06
5.10723e-05
-7.88419e-06
5.29266e-05
-6.22856e-06
5.43205e-05
-4.61048e-06
5.5273e-05
-3.0654e-06
5.58106e-05
-1.62086e-06
5.59651e-05
-2.96513e-07
5.57724e-05
8.96094e-07
5.52701e-05
1.95209e-06
5.44967e-05
2.87007e-06
5.34906e-05
3.65139e-06
5.22893e-05
4.29994e-06
5.09286e-05
4.82177e-06
4.94429e-05
5.22464e-06
4.78637e-05
5.51764e-06
4.62201e-05
5.71072e-06
4.45384e-05
5.81439e-06
4.28419e-05
5.83931e-06
4.1151e-05
5.79606e-06
3.94834e-05
5.69488e-06
3.78537e-05
5.54552e-06
3.62742e-05
5.35707e-06
3.47545e-05
5.13786e-06
3.33024e-05
4.89544e-06
3.19232e-05
4.63654e-06
3.06208e-05
4.36705e-06
2.93975e-05
4.09207e-06
2.8254e-05
3.81594e-06
2.71902e-05
3.54229e-06
2.62049e-05
3.27409e-06
2.52962e-05
3.01372e-06
2.44614e-05
2.76303e-06
2.36976e-05
2.52341e-06
2.30015e-05
2.29584e-06
2.23694e-05
2.08093e-06
2.17977e-05
1.87902e-06
2.12826e-05
1.69018e-06
2.08203e-05
1.51426e-06
2.04071e-05
1.35098e-06
2.00395e-05
1.19987e-06
1.9714e-05
1.0604e-06
1.94273e-05
9.31922e-07
1.91765e-05
8.1375e-07
1.89585e-05
7.05143e-07
1.87709e-05
6.05334e-07
1.86111e-05
5.1354e-07
1.84771e-05
4.2897e-07
1.83668e-05
3.50831e-07
1.82785e-05
2.78337e-07
1.82109e-05
2.10708e-07
1.81625e-05
1.47174e-07
1.81325e-05
8.69779e-08
1.81199e-05
2.93739e-08
1.81242e-05
-2.63651e-08
1.81451e-05
-8.09829e-08
1.81823e-05
-1.35256e-07
1.8236e-05
-1.89981e-07
1.83066e-05
-2.45984e-07
1.83945e-05
-3.04138e-07
1.85006e-05
-3.65376e-07
1.86262e-05
-4.30713e-07
1.87727e-05
-5.01264e-07
1.89418e-05
-5.78276e-07
1.91359e-05
-6.63157e-07
1.93575e-05
-7.5752e-07
1.96099e-05
-8.63232e-07
1.98969e-05
-9.8248e-07
2.0223e-05
-1.11785e-06
2.05934e-05
-1.27243e-06
2.10146e-05
-1.44996e-06
2.1494e-05
-1.65496e-06
2.20407e-05
-1.89304e-06
2.26655e-05
-2.17116e-06
2.33816e-05
-2.49806e-06
2.42049e-05
-2.88492e-06
2.51554e-05
-3.34622e-06
2.62579e-05
-3.90103e-06
2.75438e-05
-4.5751e-06
2.90539e-05
-5.40397e-06
3.08414e-05
-6.4383e-06
3.29765e-05
-7.7525e-06
3.55507e-05
-9.45945e-06
3.86779e-05
-1.17352e-05
4.24807e-05
-1.4859e-05
4.70382e-05
-1.9272e-05
5.22402e-05
-2.56534e-05
5.73734e-05
-3.5001e-05
6.0113e-05
-4.86044e-05
5.53091e-05
-6.72931e-05
3.75981e-05
-8.84099e-05
1.14426e-05
-0.000102445
-1.52362e-05
-0.000103728
-3.37133e-05
-9.08625e-05
-3.87674e-05
-6.96253e-05
-3.59173e-05
-5.03547e-05
-3.05324e-05
-3.61265e-05
-2.50672e-05
-2.62542e-05
-2.02929e-05
-1.94819e-05
-1.63379e-05
-1.48008e-05
-1.31208e-05
-1.15043e-05
-1.05088e-05
-9.12191e-06
-8.37613e-06
-7.35024e-06
-6.62156e-06
-5.9954e-06
-5.16789e-06
-4.93187e-06
-3.9575e-06
-4.07637e-06
-2.94745e-06
-3.37202e-06
-2.10547e-06
-2.77906e-06
-1.40708e-06
-2.26939e-06
-8.33334e-07
-1.82345e-06
-3.68715e-07
-1.42798e-06
-1.07664e-06
-1.18291e-06
4.78367e-06
-2.571e-06
5.74236e-06
-4.09217e-06
6.39423e-06
-5.67743e-06
6.74589e-06
-7.25976e-06
6.80554e-06
-8.77362e-06
6.57978e-06
-1.01544e-05
6.07383e-06
-1.13377e-05
5.29187e-06
-1.22599e-05
4.23771e-06
-1.28582e-05
2.91625e-06
-1.30714e-05
1.33521e-06
-1.28417e-05
-4.93101e-07
-1.2116e-05
-2.5493e-06
-1.08497e-05
-4.8016e-06
-9.00896e-06
-7.2037e-06
-6.57486e-06
-9.69378e-06
-3.54652e-06
-1.21951e-05
5.63189e-08
-1.46185e-05
4.17352e-06
-1.68428e-05
8.70861e-06
-1.87045e-05
1.35539e-05
-2.01203e-05
1.85893e-05
-2.10358e-05
2.36907e-05
-2.14264e-05
2.87371e-05
-2.12966e-05
3.3617e-05
-2.06774e-05
3.82327e-05
-1.96212e-05
4.25035e-05
-1.81954e-05
4.63669e-05
-1.64756e-05
4.97784e-05
-1.45404e-05
5.27102e-05
-1.24662e-05
5.51501e-05
-1.03241e-05
5.70989e-05
-8.17732e-06
5.85684e-05
-6.08005e-06
5.95796e-05
-4.07659e-06
6.01601e-05
-2.20137e-06
6.03427e-05
-4.79101e-07
6.01637e-05
1.07515e-06
5.96614e-05
2.45435e-06
5.88752e-05
3.65628e-06
5.78442e-05
4.68235e-06
5.6607e-05
5.53723e-06
5.52004e-05
6.22836e-06
5.36595e-05
6.76548e-06
5.20172e-05
7.15997e-06
5.03035e-05
7.42444e-06
4.85457e-05
7.57216e-06
4.67683e-05
7.61673e-06
4.49927e-05
7.57165e-06
4.32375e-05
7.45006e-06
4.15185e-05
7.2645e-06
3.98489e-05
7.02671e-06
3.82392e-05
6.74752e-06
3.66979e-05
6.43676e-06
3.52312e-05
6.10325e-06
3.38435e-05
5.75475e-06
3.25376e-05
5.39799e-06
3.13148e-05
5.03874e-06
3.01752e-05
4.68186e-06
2.9118e-05
4.33134e-06
2.81413e-05
3.99041e-06
2.72427e-05
3.6616e-06
2.64193e-05
3.34682e-06
2.56677e-05
3.04744e-06
2.49843e-05
2.76436e-06
2.43652e-05
2.4981e-06
2.38066e-05
2.24879e-06
2.33045e-05
2.01633e-06
2.28551e-05
1.80035e-06
2.24547e-05
1.60033e-06
2.20995e-05
1.41555e-06
2.17862e-05
1.24523e-06
2.15115e-05
1.08847e-06
2.12723e-05
9.44322e-07
2.10659e-05
8.11784e-07
2.08896e-05
6.89842e-07
2.07411e-05
5.77464e-07
2.06183e-05
4.73614e-07
2.05194e-05
3.77262e-07
2.04427e-05
2.87386e-07
2.03869e-05
2.02977e-07
2.03508e-05
1.23037e-07
2.03336e-05
4.65853e-08
2.03346e-05
-2.73399e-08
2.03533e-05
-9.97113e-08
2.03896e-05
-1.71539e-07
2.04435e-05
-2.4386e-07
2.05152e-05
-3.17753e-07
2.06055e-05
-3.94352e-07
2.07149e-05
-4.74868e-07
2.08448e-05
-5.60613e-07
2.09966e-05
-6.53023e-07
2.1172e-05
-7.53696e-07
2.13733e-05
-8.64433e-07
2.16031e-05
-9.87284e-07
2.18645e-05
-1.12461e-06
2.21612e-05
-1.27918e-06
2.24975e-05
-1.45423e-06
2.28787e-05
-1.65363e-06
2.33108e-05
-1.88202e-06
2.38009e-05
-2.14501e-06
2.43573e-05
-2.4495e-06
2.49902e-05
-2.80401e-06
2.57113e-05
-3.21921e-06
2.6535e-05
-3.70862e-06
2.74784e-05
-4.28965e-06
2.85624e-05
-4.98499e-06
2.98121e-05
-5.82485e-06
3.12583e-05
-6.85016e-06
3.29376e-05
-8.11755e-06
3.48919e-05
-9.70685e-06
3.71649e-05
-1.17325e-05
3.97893e-05
-1.43596e-05
4.27565e-05
-1.78262e-05
4.595e-05
-2.24656e-05
4.90144e-05
-2.87178e-05
5.11115e-05
-3.7098e-05
5.05441e-05
-4.8037e-05
4.45877e-05
-6.13367e-05
3.10291e-05
-7.48514e-05
1.23066e-05
-8.3723e-05
-6.78983e-06
-8.46315e-05
-2.09223e-05
-7.67301e-05
-2.71853e-05
-6.33622e-05
-2.77864e-05
-4.97536e-05
-2.55572e-05
-3.83557e-05
-2.22898e-05
-2.95216e-05
-1.88852e-05
-2.28865e-05
-1.57335e-05
-1.79525e-05
-1.29653e-05
-1.42725e-05
-1.05913e-05
-1.14959e-05
-8.57485e-06
-9.36669e-06
-6.86683e-06
-7.70342e-06
-5.41993e-06
-6.37878e-06
-4.19342e-06
-5.30287e-06
-3.15395e-06
-4.4115e-06
-2.27478e-06
-3.65823e-06
-1.5348e-06
-3.00937e-06
-9.17405e-07
-2.44084e-06
-4.09318e-07
-1.93607e-06
-1.48596e-06
-1.23624e-06
6.01991e-06
-2.68461e-06
7.19073e-06
-4.26731e-06
7.97693e-06
-5.91145e-06
8.39003e-06
-7.54708e-06
8.44117e-06
-9.10613e-06
8.13883e-06
-1.05215e-05
7.48919e-06
-1.17263e-05
6.49672e-06
-1.26541e-05
5.16549e-06
-1.32389e-05
3.50102e-06
-1.34162e-05
1.51256e-06
-1.31247e-05
-7.8467e-07
-1.23078e-05
-3.36614e-06
-1.09175e-05
-6.19195e-06
-8.91699e-06
-9.2042e-06
-6.28533e-06
-1.23254e-05
-3.02122e-06
-1.54592e-05
8.53178e-07
-1.84929e-05
5.26423e-06
-2.12539e-05
1.01081e-05
-2.35484e-05
1.52649e-05
-2.5277e-05
2.0603e-05
-2.6374e-05
2.59879e-05
-2.68113e-05
3.12903e-05
-2.65989e-05
3.6393e-05
-2.57801e-05
4.11959e-05
-2.44241e-05
4.56184e-05
-2.26179e-05
4.96002e-05
-2.04575e-05
5.31007e-05
-1.80408e-05
5.60967e-05
-1.54622e-05
5.85807e-05
-1.2808e-05
6.05579e-05
-1.01546e-05
6.20442e-05
-7.56634e-06
6.30634e-05
-5.09578e-06
6.36454e-05
-2.78335e-06
6.38242e-05
-6.57982e-07
6.36369e-05
1.26247e-06
6.31221e-05
2.96913e-06
6.23194e-05
4.45899e-06
6.12682e-05
5.73355e-06
6.00071e-05
6.79834e-06
5.85732e-05
7.66229e-06
5.70016e-05
8.33708e-06
5.53251e-05
8.83644e-06
5.3574e-05
9.17553e-06
5.17758e-05
9.37042e-06
4.9955e-05
9.43753e-06
4.81334e-05
9.39322e-06
4.633e-05
9.25348e-06
4.45609e-05
9.03358e-06
4.28397e-05
8.74789e-06
4.11775e-05
8.40969e-06
3.95832e-05
8.03112e-06
3.80634e-05
7.62306e-06
3.6623e-05
7.19515e-06
3.52652e-05
6.75581e-06
3.39916e-05
6.31229e-06
3.28028e-05
5.87069e-06
3.1698e-05
5.43609e-06
3.06758e-05
5.01262e-06
2.97339e-05
4.60352e-06
2.88694e-05
4.21128e-06
2.80791e-05
3.83772e-06
2.73595e-05
3.48405e-06
2.67066e-05
3.15099e-06
2.61166e-05
2.8388e-06
2.55855e-05
2.54741e-06
2.51094e-05
2.27644e-06
2.46845e-05
2.02525e-06
2.4307e-05
1.79305e-06
2.39734e-05
1.57884e-06
2.36803e-05
1.38157e-06
2.34245e-05
1.20006e-06
2.32032e-05
1.03309e-06
2.30137e-05
8.79408e-07
2.28534e-05
7.37741e-07
2.27202e-05
6.06805e-07
2.26121e-05
4.85322e-07
2.25275e-05
3.72023e-07
2.24648e-05
2.65652e-07
2.24229e-05
1.64967e-07
2.24007e-05
6.87447e-08
2.23976e-05
-2.422e-08
2.2413e-05
-1.15133e-07
2.24467e-05
-2.05238e-07
2.24987e-05
-2.95816e-07
2.25691e-05
-3.88197e-07
2.26586e-05
-4.83777e-07
2.27677e-05
-5.84039e-07
2.28977e-05
-6.90583e-07
2.30498e-05
-8.05155e-07
2.32258e-05
-9.29688e-07
2.34277e-05
-1.06635e-06
2.36581e-05
-1.21759e-06
2.39197e-05
-1.38624e-06
2.4216e-05
-1.57555e-06
2.45512e-05
-1.78935e-06
2.49297e-05
-2.03217e-06
2.53571e-05
-2.30939e-06
2.58396e-05
-2.62751e-06
2.63845e-05
-2.99442e-06
2.70003e-05
-3.41983e-06
2.76968e-05
-3.91574e-06
2.84854e-05
-4.49723e-06
2.93792e-05
-5.1834e-06
3.0393e-05
-5.99881e-06
3.15436e-05
-6.9754e-06
3.28487e-05
-8.15529e-06
3.43258e-05
-9.59462e-06
3.59878e-05
-1.13689e-05
3.78353e-05
-1.35799e-05
3.98395e-05
-1.63638e-05
4.19118e-05
-1.98985e-05
4.38503e-05
-2.4404e-05
4.52564e-05
-3.01239e-05
4.54221e-05
-3.72637e-05
4.32282e-05
-4.58431e-05
3.72634e-05
-5.53719e-05
2.67322e-05
-6.43202e-05
1.30775e-05
-7.00683e-05
-8.48964e-07
-7.0705e-05
-1.18033e-05
-6.57757e-05
-1.80644e-05
-5.71011e-05
-2.03668e-05
-4.74512e-05
-2.01587e-05
-3.85638e-05
-1.86174e-05
-3.1063e-05
-1.65019e-05
-2.50019e-05
-1.42475e-05
-2.02069e-05
-1.2078e-05
-1.6442e-05
-1.00923e-05
-1.34816e-05
-8.32222e-06
-1.11367e-05
-6.76672e-06
-9.25892e-06
-5.41053e-06
-7.73497e-06
-4.23383e-06
-6.47957e-06
-3.21679e-06
-5.42854e-06
-2.34157e-06
-4.53345e-06
-1.59307e-06
-3.75787e-06
-9.59146e-07
-3.07477e-06
-4.30297e-07
-2.46492e-06
-1.91625e-06
-1.26711e-06
7.28701e-06
-2.75154e-06
8.67516e-06
-4.37157e-06
9.59696e-06
-6.0517e-06
1.00702e-05
-7.71999e-06
1.01095e-05
-9.30667e-06
9.72551e-06
-1.07428e-05
8.92537e-06
-1.19597e-05
7.71357e-06
-1.28882e-05
6.09399e-06
-1.34595e-05
4.07229e-06
-1.36056e-05
1.65875e-06
-1.32614e-05
-1.12893e-06
-1.23662e-05
-4.26138e-06
-1.08674e-05
-7.69074e-06
-8.72429e-06
-1.13473e-05
-5.91283e-06
-1.51369e-05
-2.4306e-06
-1.89414e-05
1.69793e-06
-2.26214e-05
6.3855e-06
-2.59415e-05
1.15191e-05
-2.8682e-05
1.69656e-05
-3.07235e-05
2.25798e-05
-3.19882e-05
2.82149e-05
-3.24464e-05
3.37319e-05
-3.2116e-05
3.9008e-05
-3.10562e-05
4.3941e-05
-2.93571e-05
4.84517e-05
-2.71286e-05
5.24839e-05
-2.44897e-05
5.60028e-05
-2.15597e-05
5.8992e-05
-1.84514e-05
6.1451e-05
-1.5267e-05
6.33914e-05
-1.20949e-05
6.48345e-05
-9.00944e-06
6.58085e-05
-6.06987e-06
6.63467e-05
-3.32154e-06
6.64852e-05
-7.9643e-07
6.62617e-05
1.48599e-06
6.57152e-05
3.51559e-06
6.48854e-05
5.2888e-06
6.38115e-05
6.8075e-06
6.25315e-05
8.07831e-06
6.1082e-05
9.11182e-06
5.94973e-05
9.92177e-06
5.78095e-05
1.05243e-05
5.6048e-05
1.0937e-05
5.42396e-05
1.11788e-05
5.24083e-05
1.12688e-05
5.05754e-05
1.12261e-05
4.87595e-05
1.10694e-05
4.69765e-05
1.08166e-05
4.52399e-05
1.04845e-05
4.35607e-05
1.00889e-05
4.19479e-05
9.64395e-06
4.04083e-05
9.16265e-06
3.8947e-05
8.65646e-06
3.75673e-05
8.13545e-06
3.62713e-05
7.60828e-06
3.50597e-05
7.08235e-06
3.3932e-05
6.56381e-06
3.28869e-05
6.05769e-06
3.19224e-05
5.56799e-06
3.10359e-05
5.09781e-06
3.02242e-05
4.64941e-06
2.94839e-05
4.22436e-06
2.88113e-05
3.8236e-06
2.82025e-05
3.44757e-06
2.76537e-05
3.09622e-06
2.71609e-05
2.76919e-06
2.67204e-05
2.46578e-06
2.63284e-05
2.18506e-06
2.59813e-05
1.92592e-06
2.56758e-05
1.6871e-06
2.54086e-05
1.46724e-06
2.51768e-05
1.26489e-06
2.49776e-05
1.07858e-06
2.48086e-05
9.06779e-07
2.46674e-05
7.47972e-07
2.45521e-05
6.00634e-07
2.44609e-05
4.63249e-07
2.43922e-05
3.34316e-07
2.43448e-05
2.12351e-07
2.43177e-05
9.58841e-08
2.431e-05
-1.65329e-08
2.43212e-05
-1.26337e-07
2.4351e-05
-2.34999e-07
2.43992e-05
-3.44041e-07
2.4466e-05
-4.55036e-07
2.45519e-05
-5.69631e-07
2.46574e-05
-6.8957e-07
2.47836e-05
-8.16721e-07
2.49315e-05
-9.53119e-07
2.51028e-05
-1.101e-06
2.52994e-05
-1.26286e-06
2.55233e-05
-1.4415e-06
2.57772e-05
-1.64013e-06
2.6064e-05
-1.86244e-06
2.63874e-05
-2.11271e-06
2.67512e-05
-2.39598e-06
2.716e-05
-2.7182e-06
2.7619e-05
-3.08647e-06
2.81339e-05
-3.50936e-06
2.87113e-05
-3.99725e-06
2.93585e-05
-4.56285e-06
3.00831e-05
-5.22189e-06
3.08936e-05
-5.99394e-06
3.17985e-05
-6.90362e-06
3.28052e-05
-7.98213e-06
3.39191e-05
-9.26924e-06
3.51404e-05
-1.08159e-05
3.64586e-05
-1.26871e-05
3.78438e-05
-1.49651e-05
3.92313e-05
-1.77514e-05
4.0498e-05
-2.11652e-05
4.14276e-05
-2.53337e-05
4.16684e-05
-3.03646e-05
4.06944e-05
-3.62898e-05
3.78113e-05
-4.29599e-05
3.23147e-05
-4.98753e-05
2.39879e-05
-5.59934e-05
1.37516e-05
-5.98321e-05
3.33904e-06
-6.02924e-05
-5.28794e-06
-5.71488e-05
-1.105e-05
-5.1339e-05
-1.40732e-05
-4.4428e-05
-1.50625e-05
-3.75744e-05
-1.47434e-05
-3.13821e-05
-1.36781e-05
-2.60672e-05
-1.22497e-05
-2.16353e-05
-1.06971e-05
-1.79947e-05
-9.15775e-06
-1.5021e-05
-7.70415e-06
-1.25903e-05
-6.3696e-06
-1.05935e-05
-5.1654e-06
-8.93917e-06
-4.09119e-06
-7.55379e-06
-3.14108e-06
-6.37864e-06
-2.30721e-06
-5.36732e-06
-1.58174e-06
-4.48333e-06
-9.58117e-07
-3.6984e-06
-4.31529e-07
-2.99151e-06
-2.34778e-06
-1.2787e-06
8.56571e-06
-2.7775e-06
1.0174e-05
-4.41307e-06
1.12325e-05
-6.10875e-06
1.17658e-05
-7.79175e-06
1.17925e-05
-9.39141e-06
1.13252e-05
-1.08377e-05
1.03717e-05
-1.20603e-05
8.93618e-06
-1.2988e-05
7.02166e-06
-1.35489e-05
4.63321e-06
-1.36715e-05
1.78133e-06
-1.3286e-05
-1.51446e-06
-1.23267e-05
-5.22064e-06
-1.07356e-05
-9.28185e-06
-8.46653e-06
-1.36164e-05
-5.49094e-06
-1.81125e-05
-1.80447e-06
-2.26279e-05
2.56611e-06
-2.6992e-05
7.51965e-06
-3.0895e-05
1.2932e-05
-3.40943e-05
1.86547e-05
-3.64462e-05
2.45264e-05
-3.78599e-05
3.03857e-05
-3.83057e-05
3.60829e-05
-3.78132e-05
4.14888e-05
-3.6462e-05
4.64997e-05
-3.4368e-05
5.10393e-05
-3.16682e-05
5.50575e-05
-2.85079e-05
5.85275e-05
-2.50297e-05
6.1442e-05
-2.13659e-05
6.38093e-05
-1.76342e-05
6.56494e-05
-1.3935e-05
6.69907e-05
-1.03507e-05
6.78671e-05
-6.9463e-06
6.83159e-05
-3.77039e-06
6.8376e-05
-8.56486e-07
6.80863e-05
1.77572e-06
6.74863e-05
4.11558e-06
6.66156e-05
6.15951e-06
6.55128e-05
7.91026e-06
6.42151e-05
9.37596e-06
6.27578e-05
1.05692e-05
6.11737e-05
1.15059e-05
5.94933e-05
1.22047e-05
5.77445e-05
1.26858e-05
5.59526e-05
1.29707e-05
5.41402e-05
1.30812e-05
5.23274e-05
1.30389e-05
5.05318e-05
1.28651e-05
4.87684e-05
1.258e-05
4.705e-05
1.22029e-05
4.53873e-05
1.17516e-05
4.37888e-05
1.12424e-05
4.22613e-05
1.06901e-05
4.08098e-05
1.0108e-05
3.94376e-05
9.50764e-06
3.81468e-05
8.89905e-06
3.69383e-05
8.29084e-06
3.58119e-05
7.69022e-06
3.47665e-05
7.1031e-06
3.38003e-05
6.53423e-06
3.29108e-05
5.9873e-06
3.20951e-05
5.46506e-06
3.13501e-05
4.96942e-06
3.06721e-05
4.50158e-06
3.00575e-05
4.06213e-06
2.95026e-05
3.65114e-06
2.90036e-05
3.26823e-06
2.85567e-05
2.91266e-06
2.81583e-05
2.58343e-06
2.7805e-05
2.27928e-06
2.74933e-05
1.9988e-06
2.72201e-05
1.74042e-06
2.69824e-05
1.50252e-06
2.67776e-05
1.28337e-06
2.66032e-05
1.08125e-06
2.64568e-05
8.9439e-07
2.63364e-05
7.21029e-07
2.62402e-05
5.59415e-07
2.61667e-05
4.0781e-07
2.61146e-05
2.64493e-07
2.60827e-05
1.2776e-07
2.60702e-05
-4.08471e-09
2.60766e-05
-1.32698e-07
2.61014e-05
-2.59763e-07
2.61444e-05
-3.87036e-07
2.62056e-05
-5.1632e-07
2.62855e-05
-6.49496e-07
2.63845e-05
-7.88543e-07
2.65033e-05
-9.35578e-07
2.66431e-05
-1.09289e-06
2.68051e-05
-1.26297e-06
2.69908e-05
-1.4486e-06
2.72022e-05
-1.65287e-06
2.74413e-05
-1.87929e-06
2.77108e-05
-2.13187e-06
2.80133e-05
-2.41524e-06
2.83521e-05
-2.73476e-06
2.87306e-05
-3.09674e-06
2.91528e-05
-3.50862e-06
2.96227e-05
-3.97926e-06
3.01447e-05
-4.51925e-06
3.07232e-05
-5.1414e-06
3.13626e-05
-5.86122e-06
3.20663e-05
-6.69767e-06
3.28367e-05
-7.67398e-06
3.36732e-05
-8.81871e-06
3.4571e-05
-1.0167e-05
3.55168e-05
-1.17618e-05
3.64847e-05
-1.3655e-05
3.74275e-05
-1.59079e-05
3.82655e-05
-1.85894e-05
3.88709e-05
-2.17706e-05
3.90489e-05
-2.55117e-05
3.85216e-05
-2.98373e-05
3.69248e-05
-3.46929e-05
3.38462e-05
-3.98813e-05
2.8952e-05
-4.49811e-05
2.22497e-05
-4.92911e-05
1.43583e-05
-5.19406e-05
6.35619e-06
-5.22903e-05
-5.73743e-07
-5.02188e-05
-5.68875e-06
-4.6224e-05
-8.90936e-06
-4.12073e-05
-1.05529e-05
-3.59309e-05
-1.10435e-05
-3.08915e-05
-1.07677e-05
-2.6343e-05
-1.00271e-05
-2.23759e-05
-9.03657e-06
-1.89852e-05
-7.93874e-06
-1.61188e-05
-6.82326e-06
-1.37058e-05
-5.7433e-06
-1.16734e-05
-4.72835e-06
-9.95411e-06
-3.79321e-06
-8.48893e-06
-2.94398e-06
-7.22787e-06
-2.18211e-06
-6.12919e-06
-1.507e-06
-5.15844e-06
-9.17838e-07
-4.28756e-06
-4.14698e-07
-3.49465e-06
-2.76248e-06
-1.273e-06
9.83871e-06
-2.7664e-06
1.16674e-05
-4.39741e-06
1.28635e-05
-6.08981e-06
1.34582e-05
-7.77115e-06
1.34738e-05
-9.37085e-06
1.29249e-05
-1.08185e-05
1.18194e-05
-1.20426e-05
1.01603e-05
-1.29701e-05
7.94908e-06
-1.35259e-05
5.18908e-06
-1.36346e-05
1.89e-06
-1.32212e-05
-1.92791e-06
-1.22139e-05
-6.22794e-06
-1.05477e-05
-1.0948e-05
-8.16966e-06
-1.59944e-05
-5.04511e-06
-2.1237e-05
-1.16645e-06
-2.65065e-05
3.43662e-06
-3.15951e-05
8.64923e-06
-3.61076e-05
1.4334e-05
-3.97791e-05
2.03244e-05
-4.24366e-05
2.64396e-05
-4.39751e-05
3.25009e-05
-4.43671e-05
3.83463e-05
-4.36585e-05
4.384e-05
-4.19557e-05
4.88779e-05
-3.94059e-05
5.33885e-05
-3.61787e-05
5.73297e-05
-3.24491e-05
6.06852e-05
-2.83852e-05
6.3459e-05
-2.41397e-05
6.56704e-05
-1.98457e-05
6.73496e-05
-1.56141e-05
6.85333e-05
-1.15344e-05
6.92622e-05
-7.67523e-06
6.95785e-05
-4.08668e-06
6.9524e-05
-8.02007e-07
6.91393e-05
2.16043e-06
6.84646e-05
4.79029e-06
6.75393e-05
7.08479e-06
6.64013e-05
9.04826e-06
6.50863e-05
1.06909e-05
6.36277e-05
1.20278e-05
6.20563e-05
1.30773e-05
6.04002e-05
1.38607e-05
5.8685e-05
1.44009e-05
5.69339e-05
1.47218e-05
5.51674e-05
1.48477e-05
5.34037e-05
1.48026e-05
5.16587e-05
1.46101e-05
4.99461e-05
1.42926e-05
4.82776e-05
1.38714e-05
4.6663e-05
1.33663e-05
4.511e-05
1.27954e-05
4.36249e-05
1.21752e-05
4.22124e-05
1.15205e-05
4.08757e-05
1.08443e-05
3.96168e-05
1.01579e-05
3.84367e-05
9.47094e-06
3.73353e-05
8.79165e-06
3.63116e-05
8.12678e-06
3.53641e-05
7.48177e-06
3.44905e-05
6.86088e-06
3.36882e-05
6.26733e-06
3.29543e-05
5.70339e-06
3.22853e-05
5.17051e-06