/*--------------------------------*- C++ -*----------------------------------*\
| =========                 |                                                 |
| \\      /  F ield         | OpenFOAM: The Open Source CFD Toolbox           |
|  \\    /   O peration     | Version:  2306                                  |
|   \\  /    A nd           | Website:  www.openfoam.com                      |
|    \\/     M anipulation  |                                                 |
\*---------------------------------------------------------------------------*/
FoamFile
{
    version     2.0;
    format      ascii;
    arch        "LSB;label=32;scalar=64";
    class       volVectorField;
    location    "40";
    object      U;
}
// * * * * * * * * * * * * * * * * * * * * * * * * * * * * * * * * * * * * * //

dimensions      [0 1 -1 0 0 0 0];

internalField   nonuniform List<vector> 
4480
(
(-0.000190062 0 0.000189666)
(-0.000399238 0 0.000246476)
(-0.000778012 0 0.000276843)
(-0.00119155 0 0.000297326)
(-0.00161883 0 0.000305064)
(-0.00204581 0 0.000299261)
(-0.0024553 0 0.000280529)
(-0.00282954 0 0.000249453)
(-0.00315142 0 0.000206364)
(-0.00340425 0 0.000151513)
(-0.00357169 0 8.51965e-05)
(-0.00363782 0 7.84327e-06)
(-0.00358767 0 -7.98989e-05)
(-0.00340692 0 -0.000176978)
(-0.00308365 0 -0.000281517)
(-0.00260911 0 -0.000390827)
(-0.00197914 0 -0.000501461)
(-0.00119529 0 -0.000609303)
(-0.000262939 0 -0.000710222)
(0.000806152 0 -0.000798042)
(0.00198322 0 -0.000866086)
(0.00324159 0 -0.000911294)
(0.00454766 0 -0.000932535)
(0.00586717 0 -0.000929798)
(0.00716688 0 -0.00090426)
(0.00841598 0 -0.000858154)
(0.00958735 0 -0.000794503)
(0.0106585 0 -0.000716829)
(0.0116123 0 -0.000628873)
(0.0124366 0 -0.000534354)
(0.0131247 0 -0.000436774)
(0.0136745 0 -0.000339277)
(0.0140879 0 -0.000244562)
(0.0143707 0 -0.000154842)
(0.0145308 0 -7.17995e-05)
(0.0145785 0 3.52818e-06)
(0.0145261 0 7.0718e-05)
(0.0143841 0 0.000129637)
(0.0141645 0 0.000180314)
(0.013879 0 0.000222905)
(0.0135387 0 0.000257711)
(0.0131544 0 0.000285156)
(0.0127361 0 0.000305759)
(0.0122932 0 0.00032011)
(0.011834 0 0.000328839)
(0.011366 0 0.000332594)
(0.0108958 0 0.000332026)
(0.0104291 0 0.000327769)
(0.00997058 0 0.000320426)
(0.00952426 0 0.000310564)
(0.00909332 0 0.000298702)
(0.00868025 0 0.00028531)
(0.00828691 0 0.000270808)
(0.00791462 0 0.000255563)
(0.00756419 0 0.000239893)
(0.00723603 0 0.000224068)
(0.0069302 0 0.000208316)
(0.00664646 0 0.000192821)
(0.00638434 0 0.000177734)
(0.00614319 0 0.000163171)
(0.00592219 0 0.000149221)
(0.00572044 0 0.000135948)
(0.00553695 0 0.000123394)
(0.00537068 0 0.000111583)
(0.00522059 0 0.000100524)
(0.0050856 0 9.0213e-05)
(0.00496468 0 8.06353e-05)
(0.0048568 0 7.17684e-05)
(0.00476097 0 6.35829e-05)
(0.00467627 0 5.60445e-05)
(0.00460179 0 4.91149e-05)
(0.00453672 0 4.27531e-05)
(0.00448027 0 3.69164e-05)
(0.00443173 0 3.15606e-05)
(0.00439046 0 2.66414e-05)
(0.00435587 0 2.2114e-05)
(0.00432743 0 1.79342e-05)
(0.00430469 0 1.4058e-05)
(0.00428724 0 1.04421e-05)
(0.00427475 0 7.04398e-06)
(0.00426693 0 3.822e-06)
(0.00426357 0 7.36591e-07)
(0.0042645 0 -2.25193e-06)
(0.00426961 0 -5.18651e-06)
(0.00427886 0 -8.1108e-06)
(0.00429224 0 -1.10688e-05)
(0.00430986 0 -1.41063e-05)
(0.00433184 0 -1.72723e-05)
(0.0043584 0 -2.06189e-05)
(0.00438983 0 -2.42035e-05)
(0.00442652 0 -2.80894e-05)
(0.00446893 0 -3.23481e-05)
(0.00451763 0 -3.70606e-05)
(0.00457332 0 -4.23205e-05)
(0.00463685 0 -4.82367e-05)
(0.00470922 0 -5.49378e-05)
(0.00479163 0 -6.25765e-05)
(0.00488551 0 -7.13364e-05)
(0.00499258 0 -8.14401e-05)
(0.00511489 0 -9.31594e-05)
(0.00525493 0 -0.000106829)
(0.0054157 0 -0.000122865)
(0.00560083 0 -0.000141784)
(0.00581481 0 -0.000164234)
(0.00606312 0 -0.000191027)
(0.00635255 0 -0.000223172)
(0.00669156 0 -0.000261913)
(0.00709068 0 -0.000308738)
(0.007563 0 -0.000365356)
(0.00812471 0 -0.000433602)
(0.00879644 0 -0.000515714)
(0.00960675 0 -0.000617246)
(0.0105912 0 -0.000757381)
(0.0117636 0 -0.00098889)
(0.0131494 0 -0.0014532)
(0.0155731 0 -0.00282017)
(0.0231151 0 -0.00868914)
(0.0371327 0 -0.0317254)
(0.0415349 0 -0.0808431)
(0.0183702 0 -0.101592)
(-0.0110836 0 -0.10349)
(-0.0359332 0 -0.0838435)
(-0.0318453 0 -0.0326724)
(-0.0171744 0 -0.00910441)
(-0.00933733 0 -0.0029292)
(-0.00692413 0 -0.00144483)
(-0.0056176 0 -0.000937622)
(-0.00453031 0 -0.000694096)
(-0.00362903 0 -0.000554847)
(-0.00289751 0 -0.0004582)
(-0.00229888 0 -0.000381189)
(-0.00180482 0 -0.000317088)
(-0.00139587 0 -0.000263398)
(-0.00105733 0 -0.000218225)
(-0.000777747 0 -0.000179808)
(-0.000548398 0 -0.000146557)
(-0.000362427 0 -0.000117195)
(-0.000213707 0 -9.11128e-05)
(-9.91822e-05 0 -6.83892e-05)
(-4.43968e-05 0 -4.46558e-05)
(-0.000248423 0 0.000399257)
(-0.000511516 0 0.000508663)
(-0.000967463 0 0.00058069)
(-0.00145679 0 0.00062282)
(-0.0019595 0 0.000636762)
(-0.00245934 0 0.000623175)
(-0.00293607 0 0.000583029)
(-0.00336877 0 0.000517168)
(-0.00373712 0 0.000426164)
(-0.00402129 0 0.00031051)
(-0.00420185 0 0.000170838)
(-0.00426006 0 8.0965e-06)
(-0.00417836 0 -0.000176388)
(-0.00394052 0 -0.000380233)
(-0.00353324 0 -0.000599396)
(-0.0029471 0 -0.0008282)
(-0.002178 0 -0.00105942)
(-0.0012286 0 -0.0012847)
(-0.000104451 0 -0.00149565)
(0.00117623 0 -0.0016783)
(0.00258026 0 -0.00181988)
(0.00407626 0 -0.0019145)
(0.00562572 0 -0.00195929)
(0.00718946 0 -0.00195406)
(0.00872943 0 -0.00190123)
(0.0102104 0 -0.00180536)
(0.0116012 0 -0.00167274)
(0.0128763 0 -0.00151066)
(0.0140155 0 -0.00132691)
(0.0150049 0 -0.00112924)
(0.0158361 0 -0.000924932)
(0.0165062 0 -0.000720554)
(0.0170169 0 -0.00052174)
(0.0173739 0 -0.000333099)
(0.017586 0 -0.000158157)
(0.0176641 0 7.42359e-07)
(0.0176218 0 0.000142628)
(0.0174716 0 0.000267296)
(0.0172273 0 0.000374695)
(0.0169023 0 0.000465126)
(0.0165098 0 0.000539204)
(0.0160626 0 0.000597804)
(0.0155725 0 0.000641997)
(0.0150506 0 0.000673003)
(0.014507 0 0.00069213)
(0.0139507 0 0.000700734)
(0.0133898 0 0.000700171)
(0.0128313 0 0.000691769)
(0.0122809 0 0.000676795)
(0.0117438 0 0.000656438)
(0.0112239 0 0.000631794)
(0.0107244 0 0.000603857)
(0.0102478 0 0.000573511)
(0.00979585 0 0.000541539)
(0.00936964 0 0.000508614)
(0.00896984 0 0.000475313)
(0.00859666 0 0.000442121)
(0.00824992 0 0.000409435)
(0.00792916 0 0.000377577)
(0.00763366 0 0.000346799)
(0.00736252 0 0.000317293)
(0.0071147 0 0.000289198)
(0.00688905 0 0.000262608)
(0.00668435 0 0.000237576)
(0.00649936 0 0.000214123)
(0.0063328 0 0.000192245)
(0.00618344 0 0.000171913)
(0.00605004 0 0.000153081)
(0.00593142 0 0.000135688)
(0.00582643 0 0.000119664)
(0.00573401 0 0.000104927)
(0.00565315 0 9.13936e-05)
(0.0055829 0 7.89724e-05)
(0.00552239 0 6.75713e-05)
(0.00547084 0 5.70966e-05)
(0.00542753 0 4.74542e-05)
(0.00539181 0 3.85504e-05)
(0.00536312 0 3.02924e-05)
(0.00534097 0 2.25888e-05)
(0.00532494 0 1.53494e-05)
(0.00531469 0 8.48629e-06)
(0.00530993 0 1.9136e-06)
(0.00531048 0 -4.45218e-06)
(0.00531619 0 -1.06997e-05)
(0.00532699 0 -1.6922e-05)
(0.0053429 0 -2.32128e-05)
(0.00536402 0 -2.96693e-05)
(0.0053905 0 -3.63946e-05)
(0.00542261 0 -4.34996e-05)
(0.0054607 0 -5.11053e-05)
(0.00550522 0 -5.93459e-05)
(0.00555673 0 -6.83719e-05)
(0.00561594 0 -7.83548e-05)
(0.00568369 0 -8.94917e-05)
(0.00576099 0 -0.000102013)
(0.00584904 0 -0.000116188)
(0.00594931 0 -0.000132341)
(0.00606351 0 -0.000150858)
(0.00619371 0 -0.000172208)
(0.00634239 0 -0.000196966)
(0.00651253 0 -0.000225839)
(0.00670773 0 -0.00025971)
(0.00693241 0 -0.000299683)
(0.00719195 0 -0.000347157)
(0.00749303 0 -0.000403915)
(0.00784402 0 -0.000472247)
(0.00825552 0 -0.000555124)
(0.00874129 0 -0.000656457)
(0.00931955 0 -0.000781506)
(0.0100155 0 -0.000937658)
(0.0108661 0 -0.00113631)
(0.0119299 0 -0.00139839)
(0.0133022 0 -0.00176939)
(0.0151336 0 -0.00235049)
(0.0177088 0 -0.00336084)
(0.0217753 0 -0.0054001)
(0.0287259 0 -0.0106627)
(0.0362683 0 -0.0258653)
(0.0330019 0 -0.0581874)
(0.0153907 0 -0.0758751)
(-0.00772714 0 -0.0771779)
(-0.0263434 0 -0.0603899)
(-0.0297639 0 -0.0269161)
(-0.0218501 0 -0.0110798)
(-0.0146462 0 -0.00551992)
(-0.0104839 0 -0.00334166)
(-0.0078891 0 -0.00226843)
(-0.0060757 0 -0.00166407)
(-0.00474395 0 -0.00128901)
(-0.00373284 0 -0.00103061)
(-0.00294021 0 -0.000837771)
(-0.00230387 0 -0.000687152)
(-0.00178548 0 -0.000566302)
(-0.00135981 0 -0.000467293)
(-0.00100934 0 -0.000384512)
(-0.000721542 0 -0.000313779)
(-0.000486944 0 -0.000252009)
(-0.000297154 0 -0.00019708)
(-0.000146359 0 -0.00014717)
(-6.78622e-05 0 -9.98149e-05)
(-0.000284353 0 0.000782139)
(-0.000595169 0 0.000966956)
(-0.00111713 0 0.00109494)
(-0.00166856 0 0.00116848)
(-0.00223038 0 0.00118989)
(-0.00278536 0 0.00116055)
(-0.00331111 0 0.00108179)
(-0.00378445 0 0.000954781)
(-0.00418273 0 0.000780453)
(-0.00448377 0 0.000559743)
(-0.00466587 0 0.000293934)
(-0.00470818 0 -1.50251e-05)
(-0.00459112 0 -0.000364282)
(-0.00429719 0 -0.000748816)
(-0.00381215 0 -0.00116082)
(-0.00312618 0 -0.00158961)
(-0.00223545 0 -0.00202178)
(-0.00114389 0 -0.00244185)
(0.000143717 0 -0.00283353)
(0.00160017 0 -0.00316968)
(0.00319082 0 -0.00342952)
(0.00487948 0 -0.00360278)
(0.00662366 0 -0.0036842)
(0.00838041 0 -0.00367351)
(0.0101083 0 -0.00357517)
(0.011769 0 -0.0033976)
(0.0133292 0 -0.00315222)
(0.014761 0 -0.00285231)
(0.0160431 0 -0.00251201)
(0.0171604 0 -0.00214538)
(0.0181038 0 -0.00176569)
(0.01887 0 -0.00138492)
(0.0194604 0 -0.0010134)
(0.0198808 0 -0.000659622)
(0.02014 0 -0.000330157)
(0.0202497 0 -2.95578e-05)
(0.0202235 0 0.000239846)
(0.0200755 0 0.000477319)
(0.0198205 0 0.000682671)
(0.019473 0 0.000856358)
(0.0190478 0 0.000999422)
(0.0185586 0 0.0011134)
(0.0180188 0 0.0012002)
(0.0174407 0 0.00126204)
(0.0168357 0 0.00130131)
(0.016214 0 0.0013205)
(0.0155848 0 0.00132213)
(0.014956 0 0.00130865)
(0.0143347 0 0.00128246)
(0.0137265 0 0.00124579)
(0.0131362 0 0.00120071)
(0.0125677 0 0.00114911)
(0.012024 0 0.00109268)
(0.0115072 0 0.00103292)
(0.0110189 0 0.000971137)
(0.01056 0 0.000908441)
(0.0101309 0 0.000845777)
(0.00973146 0 0.000783924)
(0.00936139 0 0.000723516)
(0.00901993 0 0.000665054)
(0.00870617 0 0.000608921)
(0.008419 0 0.000555399)
(0.00815715 0 0.00050468)
(0.00791931 0 0.000456881)
(0.00770409 0 0.000412054)
(0.00751008 0 0.000370197)
(0.00733586 0 0.000331267)
(0.00718007 0 0.000295181)
(0.00704134 0 0.00026183)
(0.0069184 0 0.000231082)
(0.00681001 0 0.000202789)
(0.00671502 0 0.00017679)
(0.00663234 0 0.000152917)
(0.00656099 0 0.000130994)
(0.00650005 0 0.000110845)
(0.00644869 0 9.22903e-05)
(0.00640617 0 7.51525e-05)
(0.00637183 0 5.92551e-05)
(0.00634511 0 4.44236e-05)
(0.00632551 0 3.04865e-05)
(0.00631263 0 1.72751e-05)
(0.00630615 0 4.62427e-06)
(0.00630582 0 -7.62651e-06)
(0.00631149 0 -1.96446e-05)
(0.00632307 0 -3.16061e-05)
(0.00634056 0 -4.36897e-05)
(0.00636406 0 -5.60812e-05)
(0.00639375 0 -6.8977e-05)
(0.00642991 0 -8.25884e-05)
(0.00647293 0 -9.71454e-05)
(0.0065233 0 -0.000112903)
(0.00658166 0 -0.000130146)
(0.00664879 0 -0.000149199)
(0.0067256 0 -0.000170435)
(0.00681323 0 -0.000194287)
(0.00691302 0 -0.000221267)
(0.00702656 0 -0.000251981)
(0.00715574 0 -0.000287157)
(0.00730284 0 -0.000327677)
(0.00747057 0 -0.000374621)
(0.00766217 0 -0.000429322)
(0.00788158 0 -0.000493441)
(0.00813357 0 -0.000569072)
(0.00842398 0 -0.000658885)
(0.00876007 0 -0.000766328)
(0.00915094 0 -0.000895929)
(0.00960825 0 -0.00105377)
(0.0101472 0 -0.00124824)
(0.0107882 0 -0.00149142)
(0.0115596 0 -0.00180165)
(0.0125022 0 -0.0022087)
(0.0136766 0 -0.0027648)
(0.0151726 0 -0.003568)
(0.0171176 0 -0.00480673)
(0.0196882 0 -0.00683958)
(0.0231025 0 -0.0103764)
(0.0272502 0 -0.0169271)
(0.029855 0 -0.029127)
(0.0253486 0 -0.0467835)
(0.0125856 0 -0.0578671)
(-0.00412121 0 -0.0587166)
(-0.0175916 0 -0.0482483)
(-0.0222831 0 -0.0301555)
(-0.0195508 0 -0.0175166)
(-0.0152248 0 -0.0106555)
(-0.0116748 0 -0.00691638)
(-0.00901837 0 -0.0047627)
(-0.00702964 0 -0.00345965)
(-0.00552258 0 -0.00262664)
(-0.00435993 0 -0.0020594)
(-0.0034439 0 -0.00165018)
(-0.00270851 0 -0.00134125)
(-0.00210974 0 -0.00109971)
(-0.00161765 0 -0.000905385)
(-0.0012113 0 -0.000745018)
(-0.000875764 0 -0.000609458)
(-0.000599786 0 -0.000492289)
(-0.000373135 0 -0.000389093)
(-0.000187996 0 -0.000296637)
(-8.67241e-05 0 -0.000213331)
(-0.00031505 0 0.00121073)
(-0.000658961 0 0.00147205)
(-0.00123187 0 0.00165319)
(-0.00183167 0 0.00175511)
(-0.00243858 0 0.00178007)
(-0.00303451 0 0.00172985)
(-0.00359545 0 0.00160606)
(-0.0040965 0 0.00141009)
(-0.00451326 0 0.00114317)
(-0.00482179 0 0.000806677)
(-0.00499864 0 0.000402624)
(-0.00502131 0 -6.58972e-05)
(-0.00486865 0 -0.000594195)
(-0.00452207 0 -0.00117432)
(-0.00396648 0 -0.0017944)
(-0.00319161 0 -0.0024384)
(-0.00219385 0 -0.00308636)
(-0.000978015 0 -0.0037151)
(0.000452339 0 -0.00429849)
(0.00205886 0 -0.0047939)
(0.00380763 0 -0.00517466)
(0.00565716 0 -0.00542625)
(0.00756129 0 -0.00554134)
(0.00947376 0 -0.00552001)
(0.0113503 0 -0.00536932)
(0.0131505 0 -0.00510206)
(0.0148393 0 -0.00473526)
(0.0163883 0 -0.00428856)
(0.0177755 0 -0.00378268)
(0.0189857 0 -0.00323812)
(0.0200102 0 -0.00267417)
(0.0208457 0 -0.00210819)
(0.021494 0 -0.00155515)
(0.0219612 0 -0.00102738)
(0.0222564 0 -0.000534454)
(0.0223915 0 -8.31712e-05)
(0.0223803 0 0.000322609)
(0.0222376 0 0.000681376)
(0.0219787 0 0.000992725)
(0.021619 0 0.00125719)
(0.0211739 0 0.00147616)
(0.020658 0 0.00165177)
(0.0200854 0 0.00178675)
(0.0194693 0 0.00188426)
(0.018822 0 0.00194776)
(0.0181544 0 0.00198089)
(0.0174766 0 0.00198732)
(0.0167972 0 0.0019707)
(0.0161239 0 0.00193455)
(0.0154631 0 0.00188221)
(0.0148201 0 0.00181678)
(0.0141994 0 0.00174111)
(0.0136044 0 0.00165775)
(0.0130376 0 0.001569)
(0.012501 0 0.00147684)
(0.0119957 0 0.00138298)
(0.0115223 0 0.00128889)
(0.011081 0 0.00119578)
(0.0106713 0 0.00110464)
(0.0102927 0 0.00101627)
(0.00994428 0 0.000931265)
(0.00962489 0 0.00085009)
(0.00933326 0 0.000773059)
(0.00906799 0 0.00070037)
(0.00882761 0 0.000632124)
(0.00861062 0 0.000568335)
(0.00841551 0 0.000508948)
(0.00824078 0 0.000453853)
(0.00808497 0 0.000402893)
(0.00794667 0 0.000355876)
(0.00782455 0 0.000312585)
(0.00771734 0 0.00027278)
(0.00762385 0 0.000236209)
(0.00754298 0 0.00020261)
(0.00747373 0 0.000171716)
(0.00741517 0 0.000143258)
(0.00736649 0 0.000116968)
(0.00732695 0 9.25772e-05)
(0.0072959 0 6.98223e-05)
(0.00727282 0 4.84425e-05)
(0.00725723 0 2.8181e-05)
(0.00724877 0 8.78608e-06)
(0.00724717 0 -9.98777e-06)
(0.00725223 0 -2.83932e-05)
(0.00726386 0 -4.66948e-05)
(0.00728203 0 -6.5163e-05)
(0.00730683 0 -8.4079e-05)
(0.00733844 0 -0.00010374)
(0.00737716 0 -0.000124463)
(0.00742338 0 -0.000146596)
(0.00747762 0 -0.00017052)
(0.00754054 0 -0.000196662)
(0.00761294 0 -0.000225507)
(0.00769579 0 -0.000257609)
(0.00779027 0 -0.000293613)
(0.00789774 0 -0.000334274)
(0.00801987 0 -0.000380488)
(0.00815859 0 -0.00043333)
(0.00831624 0 -0.000494096)
(0.00849554 0 -0.00056437)
(0.0086998 0 -0.000646107)
(0.00893294 0 -0.000741742)
(0.0091997 0 -0.000854348)
(0.00950585 0 -0.000987851)
(0.00985849 0 -0.00114735)
(0.0102664 0 -0.00133958)
(0.0107407 0 -0.00157367)
(0.0112955 0 -0.00186234)
(0.0119492 0 -0.0022239)
(0.0127263 0 -0.00268583)
(0.0136587 0 -0.00329101)
(0.0147881 0 -0.00410912)
(0.0161645 0 -0.00525652)
(0.0178362 0 -0.00692846)
(0.0198206 0 -0.00944601)
(0.02202 0 -0.0133215)
(0.0239488 0 -0.0193125)
(0.0240593 0 -0.0281284)
(0.0196948 0 -0.0386049)
(0.0104524 0 -0.0455008)
(-0.00122628 0 -0.046099)
(-0.0109867 0 -0.0397104)
(-0.0155362 0 -0.0291111)
(-0.015425 0 -0.020006)
(-0.0134003 0 -0.0137361)
(-0.0110856 0 -0.00964071)
(-0.00900024 0 -0.00696888)
(-0.00725324 0 -0.00519818)
(-0.00582871 0 -0.00399206)
(-0.00467472 0 -0.00314105)
(-0.00373621 0 -0.00251824)
(-0.00296703 0 -0.00204674)
(-0.00233166 0 -0.00167889)
(-0.00180355 0 -0.00138404)
(-0.00136303 0 -0.00114175)
(-0.000995502 0 -0.00093792)
(-0.000689586 0 -0.000762694)
(-0.000434502 0 -0.000609295)
(-0.000221853 0 -0.000473126)
(-0.000103108 0 -0.00035227)
(-0.000338293 0 0.00167097)
(-0.000705754 0 0.00201254)
(-0.00131622 0 0.00224655)
(-0.00195175 0 0.00237471)
(-0.00259161 0 0.00239981)
(-0.00321685 0 0.00232412)
(-0.00380221 0 0.00214956)
(-0.00432147 0 0.00187772)
(-0.00474889 0 0.00151004)
(-0.00505913 0 0.00104833)
(-0.0052273 0 0.000495325)
(-0.00522946 0 -0.000144658)
(-0.00504309 0 -0.000864908)
(-0.00464846 0 -0.00165433)
(-0.00402946 0 -0.00249671)
(-0.00317522 0 -0.00337032)
(-0.00208212 0 -0.00424822)
(-0.000754912 0 -0.00509903)
(0.0008026 0 -0.00588382)
(0.00254114 0 -0.00654337)
(0.00442813 0 -0.00704716)
(0.0064163 0 -0.00737594)
(0.00845565 0 -0.00752051)
(0.0104965 0 -0.00748188)
(0.0124919 0 -0.00727036)
(0.0143997 0 -0.00690385)
(0.016184 0 -0.00640566)
(0.0178161 0 -0.00580227)
(0.0192747 0 -0.00512134)
(0.0205454 0 -0.00439002)
(0.0216205 0 -0.00363365)
(0.0224977 0 -0.00287491)
(0.0231799 0 -0.00213328)
(0.0236737 0 -0.00142479)
(0.0239892 0 -0.00076188)
(0.0241385 0 -0.000153499)
(0.0241355 0 0.000394981)
(0.0239955 0 0.000881167)
(0.0237339 0 0.00130434)
(0.0233666 0 0.00166506)
(0.0229092 0 0.00196503)
(0.0223768 0 0.00220696)
(0.0217839 0 0.00239434)
(0.0211441 0 0.00253126)
(0.02047 0 0.00262225)
(0.0197731 0 0.00267207)
(0.0190638 0 0.00268556)
(0.0183511 0 0.00266755)
(0.0176433 0 0.00262272)
(0.016947 0 0.00255553)
(0.016268 0 0.00247014)
(0.0156112 0 0.00237038)
(0.0149803 0 0.00225974)
(0.0143781 0 0.0021413)
(0.0138069 0 0.0020178)
(0.013268 0 0.0018916)
(0.0127622 0 0.00176472)
(0.0122897 0 0.00163884)
(0.0118505 0 0.00151535)
(0.0114439 0 0.00139536)
(0.0110691 0 0.00127976)
(0.0107251 0 0.00116918)
(0.0104104 0 0.0010641)
(0.0101238 0 0.000964809)
(0.00986367 0 0.000871479)
(0.00962853 0 0.00078415)
(0.00941678 0 0.000702767)
(0.00922687 0 0.000627196)
(0.00905728 0 0.000557239)
(0.00890651 0 0.000492646)
(0.00877315 0 0.00043313)
(0.00865586 0 0.000378372)
(0.00855337 0 0.000328034)
(0.00846451 0 0.000281765)
(0.00838821 0 0.000239205)
(0.00832347 0 0.000199988)
(0.00826941 0 0.000163751)
(0.00822524 0 0.000130131)
(0.00819027 0 9.87683e-05)
(0.0081639 0 6.93076e-05)
(0.00814563 0 4.1399e-05)
(0.00813505 0 1.46981e-05)
(0.00813185 0 -1.11319e-05)
(0.00813583 0 -3.64335e-05)
(0.00814684 0 -6.15636e-05)
(0.00816486 0 -8.68885e-05)
(0.00818994 0 -0.000112789)
(0.00822227 0 -0.000139665)
(0.00826212 0 -0.000167948)
(0.00830987 0 -0.000198101)
(0.00836604 0 -0.000230636)
(0.00843128 0 -0.000266123)
(0.00850638 0 -0.000305206)
(0.00859231 0 -0.000348619)
(0.0086902 0 -0.000397213)
(0.00880142 0 -0.000451982)
(0.00892757 0 -0.000514099)
(0.00907054 0 -0.000584964)
(0.00923255 0 -0.000666262)
(0.00941621 0 -0.000760046)
(0.00962462 0 -0.000868836)
(0.00986142 0 -0.000995762)
(0.0101309 0 -0.00114476)
(0.0104384 0 -0.00132084)
(0.01079 0 -0.00153049)
(0.0111933 0 -0.00178223)
(0.0116573 0 -0.00208751)
(0.0121933 0 -0.00246205)
(0.0128147 0 -0.00292797)
(0.0135374 0 -0.00351723)
(0.0143792 0 -0.00427696)
(0.0153572 0 -0.00527786)
(0.0164807 0 -0.00662632)
(0.0177332 0 -0.00847971)
(0.0190377 0 -0.0110602)
(0.0201886 0 -0.0146545)
(0.0207139 0 -0.0195572)
(0.0196654 0 -0.0258039)
(0.0157948 0 -0.032397)
(0.00903553 0 -0.0367376)
(0.000864998 0 -0.0371637)
(-0.00626916 0 -0.0332467)
(-0.0103007 0 -0.0266761)
(-0.0114062 0 -0.0202618)
(-0.0108486 0 -0.0151435)
(-0.00962081 0 -0.0113499)
(-0.00822739 0 -0.00860994)
(-0.0068927 0 -0.00664005)
(-0.00570243 0 -0.00521156)
(-0.00467531 0 -0.0041578)
(-0.00380126 0 -0.0033636)
(-0.0030609 0 -0.00275117)
(-0.00243406 0 -0.00226802)
(-0.00190286 0 -0.00187826)
(-0.00145253 0 -0.00155688)
(-0.00107127 0 -0.00128619)
(-0.000749336 0 -0.00105354)
(-0.00047674 0 -0.000850089)
(-0.000245646 0 -0.000669813)
(-0.000114966 0 -0.000509764)
(-0.000353814 0 0.00215667)
(-0.000737351 0 0.00258193)
(-0.00137377 0 0.00286938)
(-0.00203404 0 0.00302251)
(-0.00269659 0 0.0030451)
(-0.00334176 0 0.00294014)
(-0.00394334 0 0.00270989)
(-0.0044741 0 0.00235611)
(-0.00490724 0 0.0018804)
(-0.00521622 0 0.0012849)
(-0.00537486 0 0.000573021)
(-0.00535782 0 -0.000249699)
(-0.00514117 0 -0.00117446)
(-0.00470379 0 -0.00218693)
(-0.00402825 0 -0.00326629)
(-0.00310274 0 -0.0043848)
(-0.00192343 0 -0.00550798)
(-0.000492807 0 -0.00659577)
(0.00117827 0 -0.00759056)
(0.00303827 0 -0.00842041)
(0.00505053 0 -0.00904908)
(0.00716264 0 -0.00945262)
(0.00932016 0 -0.00962039)
(0.0114696 0 -0.00955501)
(0.0135612 0 -0.00927106)
(0.0155511 0 -0.00879255)
(0.017403 0 -0.00815)
(0.0190889 0 -0.00737752)
(0.0205885 0 -0.00651025)
(0.0218894 0 -0.00558223)
(0.0229856 0 -0.00462496)
(0.023877 0 -0.00366637)
(0.0245679 0 -0.00273024)
(0.0250664 0 -0.00183604)
(0.0253836 0 -0.000998829)
(0.0255324 0 -0.000229444)
(0.025527 0 0.000465437)
(0.0253827 0 0.00108259)
(0.0251153 0 0.00162095)
(0.0247407 0 0.00208108)
(0.0242744 0 0.00246501)
(0.0237318 0 0.00277599)
(0.0231273 0 0.00301832)
(0.0224745 0 0.003197)
(0.0217861 0 0.00331759)
(0.0210736 0 0.00338597)
(0.0203474 0 0.00340814)
(0.0196169 0 0.00339008)
(0.0188901 0 0.00333764)
(0.0181741 0 0.00325638)
(0.0174748 0 0.00315154)
(0.0167971 0 0.00302793)
(0.016145 0 0.00288996)
(0.0155216 0 0.00274158)
(0.0149292 0 0.00258626)
(0.0143693 0 0.00242703)
(0.0138429 0 0.0022665)
(0.0133504 0 0.00210686)
(0.0128918 0 0.00194992)
(0.0124666 0 0.00179714)
(0.0120741 0 0.00164968)
(0.0117131 0 0.00150842)
(0.0113825 0 0.00137398)
(0.0110809 0 0.0012468)
(0.0108067 0 0.0011271)
(0.0105586 0 0.00101497)
(0.0103347 0 0.000910373)
(0.0101337 0 0.000813154)
(0.00995386 0 0.000723079)
(0.00979374 0 0.000639846)
(0.00965187 0 0.000563098)
(0.00952685 0 0.000492441)
(0.00941739 0 0.00042745)
(0.00932226 0 0.000367683)
(0.00924035 0 0.000312685)
(0.00917061 0 0.000261994)
(0.00911212 0 0.000215146)
(0.00906406 0 0.00017168)
(0.00902567 0 0.000131138)
(0.00899635 0 9.30675e-05)
(0.00897553 0 5.70203e-05)
(0.0089628 0 2.2556e-05)
(0.0089578 0 -1.07582e-05)
(0.00896031 0 -4.3358e-05)
(0.00897014 0 -7.5694e-05)
(0.00898727 0 -0.00010823)
(0.00901171 0 -0.000141449)
(0.00904362 0 -0.000175857)
(0.00908325 0 -0.000211993)
(0.00913096 0 -0.000250442)
(0.00918723 0 -0.000291841)
(0.00925267 0 -0.000336899)
(0.00932803 0 -0.000386413)
(0.00941421 0 -0.000441289)
(0.00951228 0 -0.000502568)
(0.00962351 0 -0.000571463)
(0.00974938 0 -0.000649399)
(0.00989162 0 -0.000738065)
(0.0100522 0 -0.000839485)
(0.0102335 0 -0.000956108)
(0.0104382 0 -0.00109092)
(0.0106695 0 -0.00124761)
(0.010931 0 -0.00143078)
(0.0112268 0 -0.00164624)
(0.0115619 0 -0.00190141)
(0.0119419 0 -0.00220592)
(0.0123731 0 -0.00257247)
(0.0128626 0 -0.00301806)
(0.0134175 0 -0.00356579)
(0.0140446 0 -0.00424751)
(0.0147477 0 -0.0051074)
(0.0155233 0 -0.00620677)
(0.0163518 0 -0.0076292)
(0.0171816 0 -0.00948393)
(0.0179021 0 -0.0119017)
(0.0183047 0 -0.0150117)
(0.0180276 0 -0.0188753)
(0.0165175 0 -0.0233207)
(0.0132071 0 -0.0276247)
(0.00817093 0 -0.0304079)
(0.00232941 0 -0.0307093)
(-0.00297241 0 -0.0282775)
(-0.00641774 0 -0.0240674)
(-0.00800495 0 -0.0195443)
(-0.00828979 0 -0.0155306)
(-0.00784511 0 -0.0122574)
(-0.00705681 0 -0.00969265)
(-0.00615179 0 -0.00771847)
(-0.00525182 0 -0.00620492)
(-0.00441462 0 -0.00503855)
(-0.00366203 0 -0.00412991)
(-0.0029977 0 -0.00341196)
(-0.00241703 0 -0.00283547)
(-0.00191232 0 -0.00236451)
(-0.00147538 0 -0.00197276)
(-0.0010987 0 -0.0016408)
(-0.000775361 0 -0.00135432)
(-0.000497225 0 -0.00110293)
(-0.000257875 0 -0.000879393)
(-0.000121255 0 -0.000679487)
(-0.000362706 0 0.00265922)
(-0.000755775 0 0.00317067)
(-0.00140788 0 0.00351213)
(-0.00208322 0 0.00368944)
(-0.00275966 0 0.00370773)
(-0.00341705 0 0.00357082)
(-0.00402852 0 0.00328135)
(-0.00456607 0 0.00284118)
(-0.00500203 0 0.00225193)
(-0.00530877 0 0.00151591)
(-0.00545885 0 0.000637088)
(-0.00542541 0 -0.000377903)
(-0.00518296 0 -0.00151824)
(-0.00470861 0 -0.00276633)
(-0.00398318 0 -0.00409667)
(-0.00299351 0 -0.00547507)
(-0.00173526 0 -0.00685879)
(-0.000207632 0 -0.0081978)
(0.00156941 0 -0.00941164)
(0.00354405 0 -0.0104173)
(0.00567358 0 -0.0111714)
(0.00790013 0 -0.0116453)
(0.010164 0 -0.0118273)
(0.0124071 0 -0.0117227)
(0.0145767 0 -0.0113515)
(0.0166273 0 -0.0107452)
(0.0185226 0 -0.00994281)
(0.0202357 0 -0.00898703)
(0.0217485 0 -0.0079211)
(0.023051 0 -0.00678636)
(0.0241403 0 -0.00562049)
(0.0250186 0 -0.00445651)
(0.025693 0 -0.00332225)
(0.0261736 0 -0.0022402)
(0.0264727 0 -0.00122763)
(0.0266046 0 -0.000296877)
(0.0265838 0 0.000544479)
(0.0264259 0 0.00129256)
(0.0261467 0 0.00194602)
(0.0257621 0 0.00250548)
(0.0252876 0 0.00297334)
(0.0247382 0 0.00335349)
(0.024128 0 0.00365099)
(0.0234704 0 0.00387179)
(0.0227777 0 0.00402249)
(0.0220611 0 0.00411003)
(0.0213309 0 0.00414157)
(0.020596 0 0.0041242)
(0.0198645 0 0.00406487)
(0.0191433 0 0.00397023)
(0.0184381 0 0.00384654)
(0.0177539 0 0.00369961)
(0.0170947 0 0.00353474)
(0.0164636 0 0.00335669)
(0.015863 0 0.0031697)
(0.0152946 0 0.00297748)
(0.0147593 0 0.0027832)
(0.0142578 0 0.00258957)
(0.01379 0 0.00239885)
(0.0133556 0 0.00221285)
(0.0129539 0 0.00203304)
(0.012584 0 0.00186052)
(0.0122447 0 0.00169612)
(0.0119347 0 0.00154037)
(0.0116525 0 0.00139363)
(0.0113966 0 0.00125601)
(0.0111655 0 0.0011275)
(0.0109575 0 0.00100795)
(0.0107713 0 0.000897078)
(0.0106051 0 0.000794549)
(0.0104576 0 0.000699939)
(0.0103274 0 0.00061278)
(0.0102132 0 0.000532564)
(0.0101137 0 0.00045876)
(0.0100278 0 0.000390817)
(0.00995436 0 0.000328177)
(0.00989253 0 0.000270278)
(0.00984143 0 0.00021656)
(0.00980028 0 0.000166464)
(0.00976845 0 0.00011944)
(0.00974535 0 7.49412e-05)
(0.00973054 0 3.24291e-05)
(0.00972363 0 -8.62734e-06)
(0.00972439 0 -4.87572e-05)
(0.0097326 0 -8.85038e-05)
(0.0097482 0 -0.000128429)
(0.00977118 0 -0.000169114)
(0.00980167 0 -0.000211169)
(0.00983987 0 -0.000255241)
(0.0098861 0 -0.000302027)
(0.00994078 0 -0.000352284)
(0.0100045 0 -0.00040685)
(0.0100778 0 -0.000466662)
(0.0101617 0 -0.000532779)
(0.010257 0 -0.000606412)
(0.0103648 0 -0.000688962)
(0.0104865 0 -0.000782063)
(0.0106235 0 -0.000887641)
(0.0107776 0 -0.00100799)
(0.0109506 0 -0.00114585)
(0.0111447 0 -0.00130455)
(0.0113625 0 -0.00148816)
(0.0116067 0 -0.00170168)
(0.0118803 0 -0.00195137)
(0.0121865 0 -0.00224507)
(0.0125288 0 -0.00259278)
(0.0129105 0 -0.00300735)
(0.0133343 0 -0.00350544)
(0.0138018 0 -0.00410882)
(0.0143115 0 -0.00484599)
(0.0148566 0 -0.00575409)
(0.0154199 0 -0.00688069)
(0.0159667 0 -0.00828441)
(0.0164329 0 -0.0100321)
(0.0167092 0 -0.0121884)
(0.0166229 0 -0.0147904)
(0.0159243 0 -0.0177973)
(0.0143026 0 -0.021)
(0.0115127 0 -0.0238997)
(0.00767074 0 -0.0257324)
(0.00335157 0 -0.0259441)
(-0.000647987 0 -0.0244131)
(-0.00356383 0 -0.0216328)
(-0.00526324 0 -0.0184127)
(-0.00599068 0 -0.0153113)
(-0.00606061 0 -0.0125848)
(-0.00573758 0 -0.010303)
(-0.00520876 0 -0.0084432)
(-0.00459445 0 -0.00694638)
(-0.00396599 0 -0.00574542)
(-0.00336233 0 -0.00477875)
(-0.00280255 0 -0.00399481)
(-0.00229427 0 -0.00335234)
(-0.00183886 0 -0.0028191)
(-0.00143466 0 -0.00237009)
(-0.00107881 0 -0.00198602)
(-0.000767738 0 -0.00165207)
(-0.00049576 0 -0.001357)
(-0.000258412 0 -0.00109269)
(-0.000121916 0 -0.000853665)
(-0.000365965 0 0.00317016)
(-0.000762742 0 0.00376934)
(-0.00142128 0 0.00416531)
(-0.002103 0 0.00436654)
(-0.00278557 0 0.00437968)
(-0.0034486 0 0.00420945)
(-0.00406483 0 0.00385881)
(-0.00460575 0 0.00332958)
(-0.00504295 0 0.0026232)
(-0.00534779 0 0.00174192)
(-0.00549149 0 0.000689975)
(-0.00544553 0 -0.000525103)
(-0.00518253 0 -0.00189066)
(-0.00467742 0 -0.00338599)
(-0.00390878 0 -0.0049808)
(-0.00286151 0 -0.00663405)
(-0.00153041 0 -0.00829388)
(8.94001e-05 0 -0.00989875)
(0.00196763 0 -0.0113408)
(0.00405289 0 -0.0125275)
(0.00629506 0 -0.0134065)
(0.00862986 0 -0.0139442)
(0.0109913 0 -0.0141287)
(0.0133162 0 -0.0139689)
(0.0155481 0 -0.0134922)
(0.0176401 0 -0.0127392)
(0.0195564 0 -0.0117589)
(0.0212718 0 -0.0106036)
(0.0227711 0 -0.00932567)
(0.0240481 0 -0.00797397)
(0.0251032 0 -0.00659246)
(0.0259424 0 -0.00521901)
(0.0265758 0 -0.00388506)
(0.0270159 0 -0.00261564)
(0.0272773 0 -0.0014297)
(0.0273755 0 -0.000340501)
(0.0273257 0 0.000643976)
(0.0271438 0 0.0015195)
(0.0268458 0 0.00228456)
(0.0264473 0 0.00294002)
(0.0259636 0 0.00348878)
(0.0254092 0 0.00393544)
(0.0247977 0 0.00428591)
(0.0241418 0 0.00454711)
(0.0234533 0 0.00472666)
(0.0227427 0 0.00483257)
(0.0220197 0 0.00487306)
(0.0212928 0 0.00485631)
(0.0205694 0 0.00479031)
(0.0198562 0 0.00468273)
(0.0191586 0 0.0045408)
(0.0184814 0 0.00437124)
(0.0178284 0 0.0041802)
(0.0172027 0 0.00397323)
(0.0166064 0 0.00375529)
(0.0160414 0 0.00353072)
(0.0155087 0 0.00330329)
(0.0150088 0 0.00307619)
(0.0145419 0 0.00285209)
(0.0141077 0 0.0026332)
(0.0137056 0 0.00242127)
(0.0133347 0 0.00221765)
(0.012994 0 0.00202334)
(0.0126822 0 0.00183905)
(0.0123979 0 0.0016652)
(0.0121398 0 0.00150199)
(0.0119063 0 0.00134943)
(0.0116959 0 0.00120736)
(0.011507 0 0.00107551)
(0.0113383 0 0.000953465)
(0.0111883 0 0.000840767)
(0.0110557 0 0.000736875)
(0.010939 0 0.000641203)
(0.0108371 0 0.000553134)
(0.0107489 0 0.000472027)
(0.0106733 0 0.00039723)
(0.0106093 0 0.000328086)
(0.0105561 0 0.000263935)
(0.010513 0 0.000204125)
(0.0104792 0 0.000148004)
(0.0104542 0 9.49322e-05)
(0.0104375 0 4.4273e-05)
(0.0104287 0 -4.60303e-06)
(0.0104275 0 -5.23158e-05)
(0.0104338 0 -9.94971e-05)
(0.0104473 0 -0.000146804)
(0.0104682 0 -0.000194913)
(0.0104964 0 -0.000244533)
(0.0105321 0 -0.00029641)
(0.0105755 0 -0.000351344)
(0.0106272 0 -0.000410203)
(0.0106874 0 -0.000473938)
(0.0107567 0 -0.000543608)
(0.010836 0 -0.000620401)
(0.0109258 0 -0.000705668)
(0.0110273 0 -0.000800958)
(0.0111414 0 -0.000908067)
(0.0112693 0 -0.00102909)
(0.0114124 0 -0.00116651)
(0.0115722 0 -0.00132325)
(0.0117502 0 -0.00150283)
(0.0119481 0 -0.0017095)
(0.0121678 0 -0.00194842)
(0.012411 0 -0.00222591)
(0.0126793 0 -0.00254977)
(0.012974 0 -0.00292969)
(0.0132956 0 -0.00337777)
(0.0136434 0 -0.00390916)
(0.0140139 0 -0.00454279)
(0.0144001 0 -0.00530216)
(0.0147883 0 -0.0062159)
(0.0151543 0 -0.0073176)
(0.0154584 0 -0.00864415)