/*--------------------------------*- C++ -*----------------------------------*\
| =========                 |                                                 |
| \\      /  F ield         | OpenFOAM: The Open Source CFD Toolbox           |
|  \\    /   O peration     | Version:  2306                                  |
|   \\  /    A nd           | Website:  www.openfoam.com                      |
|    \\/     M anipulation  |                                                 |
\*---------------------------------------------------------------------------*/
FoamFile
{
    version     2.0;
    format      ascii;
    arch        "LSB;label=32;scalar=64";
    class       volVectorField;
    location    "40";
    object      UMean;
}
// * * * * * * * * * * * * * * * * * * * * * * * * * * * * * * * * * * * * * //

dimensions      [0 1 -1 0 0 0 0];

internalField   nonuniform List<vector> 
4480
(
(-0.000177592 0 0.000177155)
(-0.000373084 0 0.00023)
(-0.000726578 0 0.000257997)
(-0.00111194 0 0.000276605)
(-0.00150934 0 0.000283162)
(-0.00190544 0 0.000276926)
(-0.00228396 0 0.000258468)
(-0.00262812 0 0.000228331)
(-0.0029217 0 0.000186827)
(-0.00314891 0 0.000134199)
(-0.00329429 0 7.07449e-05)
(-0.00334278 0 -3.10732e-06)
(-0.00328027 0 -8.67845e-05)
(-0.00309338 0 -0.000179139)
(-0.00277103 0 -0.000278328)
(-0.00230531 0 -0.000381768)
(-0.00169268 0 -0.000486147)
(-0.000935128 0 -0.000587473)
(-3.69939e-05 0 -0.0006819)
(0.000986779 0 -0.000763114)
(0.00211114 0 -0.000825341)
(0.00330934 0 -0.000865912)
(0.00454948 0 -0.000883683)
(0.00579897 0 -0.00087863)
(0.00702616 0 -0.0008519)
(0.00820172 0 -0.000805667)
(0.00929999 0 -0.000742871)
(0.0102998 0 -0.000666934)
(0.0111851 0 -0.000581489)
(0.0119449 0 -0.000490139)
(0.0125732 0 -0.000396271)
(0.0130686 0 -0.000302915)
(0.0134337 0 -0.000212656)
(0.0136745 0 -0.00012759)
(0.0137992 0 -4.9252e-05)
(0.0138184 0 2.14626e-05)
(0.0137435 0 8.41465e-05)
(0.0135854 0 0.000138641)
(0.0133559 0 0.000185006)
(0.0130664 0 0.000223437)
(0.012728 0 0.000254269)
(0.012351 0 0.000277963)
(0.0119452 0 0.000295073)
(0.0115195 0 0.000306218)
(0.0110818 0 0.000312052)
(0.0106392 0 0.000313246)
(0.0101978 0 0.00031046)
(0.00976272 0 0.000304334)
(0.0093383 0 0.000295472)
(0.008928 0 0.000284433)
(0.00853452 0 0.000271726)
(0.00815991 0 0.000257803)
(0.00780558 0 0.000243064)
(0.00747246 0 0.000227854)
(0.00716098 0 0.000212465)
(0.00687124 0 0.00019714)
(0.00660298 0 0.00018208)
(0.00635574 0 0.000167442)
(0.00612881 0 0.000153349)
(0.00592138 0 0.000139891)
(0.00573248 0 0.000127132)
(0.0055611 0 0.000115112)
(0.00540619 0 0.000103851)
(0.00526667 0 9.33542e-05)
(0.00514145 0 8.36113e-05)
(0.0050295 0 7.46032e-05)
(0.00492979 0 6.63021e-05)
(0.00484134 0 5.86738e-05)
(0.00476323 0 5.16797e-05)
(0.00469459 0 4.52779e-05)
(0.00463462 0 3.94245e-05)
(0.00458256 0 3.40746e-05)
(0.00453775 0 2.91827e-05)
(0.00449957 0 2.47038e-05)
(0.00446746 0 2.05933e-05)
(0.00444092 0 1.68073e-05)
(0.00441954 0 1.33033e-05)
(0.00440295 0 1.00398e-05)
(0.00439082 0 6.97648e-06)
(0.0043829 0 4.07428e-06)
(0.00437899 0 1.2962e-06)
(0.00437895 0 -1.39417e-06)
(0.00438267 0 -4.03499e-06)
(0.0043901 0 -6.66509e-06)
(0.00440126 0 -9.32341e-06)
(0.00441621 0 -1.20505e-05)
(0.00443508 0 -1.48888e-05)
(0.00445806 0 -1.78841e-05)
(0.00448539 0 -2.10857e-05)
(0.00451741 0 -2.4548e-05)
(0.00455452 0 -2.83321e-05)
(0.00459721 0 -3.25066e-05)
(0.00464609 0 -3.71507e-05)
(0.00470188 0 -4.23556e-05)
(0.00476543 0 -4.82287e-05)
(0.00483776 0 -5.48966e-05)
(0.00492009 0 -6.25107e-05)
(0.00501386 0 -7.12533e-05)
(0.00512079 0 -8.13456e-05)
(0.00524296 0 -9.30587e-05)
(0.00538285 0 -0.000106727)
(0.00554345 0 -0.000122764)
(0.00572844 0 -0.000141688)
(0.00594226 0 -0.000164147)
(0.00619043 0 -0.000190952)
(0.00647974 0 -0.000223116)
(0.00681865 0 -0.00026188)
(0.00721771 0 -0.000308739)
(0.00769 0 -0.000365403)
(0.00825174 0 -0.000433712)
(0.00892357 0 -0.000515906)
(0.00973406 0 -0.000617523)
(0.0107187 0 -0.000757685)
(0.0118915 0 -0.000989019)
(0.0132776 0 -0.00145265)
(0.0157002 0 -0.00281767)
(0.0232359 0 -0.00868156)
(0.0372423 0 -0.0317111)
(0.0416476 0 -0.0808011)
(0.018497 0 -0.101562)
(-0.0109485 0 -0.103516)
(-0.0358401 0 -0.0838854)
(-0.0317628 0 -0.032679)
(-0.0170915 0 -0.00910334)
(-0.00926031 0 -0.00292405)
(-0.00685645 0 -0.00143845)
(-0.00555928 0 -0.000931175)
(-0.00448064 0 -0.000688072)
(-0.00358723 0 -0.000549408)
(-0.00286277 0 -0.00045337)
(-0.00227039 0 -0.000376943)
(-0.00178182 0 -0.000313385)
(-0.00137765 0 -0.000260195)
(-0.00104323 0 -0.000215481)
(-0.000767174 0 -0.000177483)
(-0.000540796 0 -0.000144616)
(-0.000357293 0 -0.000115605)
(-0.0002106 0 -8.98408e-05)
(-9.76885e-05 0 -6.7395e-05)
(-4.37157e-05 0 -4.39636e-05)
(-0.000231957 0 0.00037303)
(-0.000477723 0 0.000474894)
(-0.000903235 0 0.000541481)
(-0.00135931 0 0.000579801)
(-0.00182699 0 0.000591472)
(-0.00229087 0 0.000577111)
(-0.00273174 0 0.000537621)
(-0.00312981 0 0.000473785)
(-0.00346585 0 0.000386144)
(-0.00372105 0 0.000275173)
(-0.00387703 0 0.000141494)
(-0.0039161 0 -1.39602e-05)
(-0.00382163 0 -0.000189888)
(-0.00357843 0 -0.00038384)
(-0.00317415 0 -0.000591873)
(-0.00260018 0 -0.000808518)
(-0.00185307 0 -0.00102685)
(-0.000935808 0 -0.0012389)
(0.000147168 0 -0.00143641)
(0.00137385 0 -0.00160555)
(0.00271593 0 -0.00173542)
(0.00414188 0 -0.00182054)
(0.005615 0 -0.00185814)
(0.00709788 0 -0.00184806)
(0.00855412 0 -0.00179263)
(0.00995011 0 -0.00169636)
(0.0112563 0 -0.00156533)
(0.0124484 0 -0.00140668)
(0.0135077 0 -0.00122796)
(0.0144213 0 -0.00103669)
(0.0151818 0 -0.000839933)
(0.0157871 0 -0.000644022)
(0.0162396 0 -0.000454357)
(0.0165455 0 -0.000275312)
(0.0167138 0 -0.000110152)
(0.0167558 0 3.90977e-05)
(0.0166848 0 0.000171564)
(0.0165134 0 0.000286952)
(0.0162551 0 0.000385293)
(0.0159234 0 0.000466966)
(0.0155311 0 0.000532663)
(0.0150907 0 0.000583336)
(0.0146137 0 0.00062013)
(0.0141107 0 0.000644329)
(0.0135914 0 0.000657299)
(0.0130643 0 0.000660436)
(0.0125369 0 0.000655126)
(0.0120155 0 0.000642711)
(0.0115055 0 0.000624458)
(0.0110112 0 0.000601546)
(0.0105361 0 0.000575046)
(0.0100828 0 0.000545919)
(0.00965322 0 0.000515009)
(0.0092486 0 0.00048305)
(0.00886964 0 0.000450664)
(0.00851656 0 0.000418371)
(0.00818918 0 0.000386598)
(0.00788703 0 0.000355684)
(0.00760934 0 0.000325894)
(0.00735518 0 0.000297424)
(0.00712346 0 0.000270412)
(0.006913 0 0.000244948)
(0.00672255 0 0.000221077)
(0.00655083 0 0.000198811)
(0.00639656 0 0.000178135)
(0.00625849 0 0.000159009)
(0.00613539 0 0.000141375)
(0.00602607 0 0.000125164)
(0.00592943 0 0.000110294)
(0.00584442 0 9.66788e-05)
(0.00577004 0 8.42256e-05)
(0.0057054 0 7.28399e-05)
(0.00564968 0 6.24264e-05)
(0.0056021 0 5.28897e-05)
(0.00556201 0 4.41357e-05)
(0.0055288 0 3.60722e-05)
(0.00550194 0 2.86087e-05)
(0.00548097 0 2.16577e-05)
(0.00546552 0 1.51336e-05)
(0.00545527 0 8.9538e-06)
(0.00544996 0 3.03861e-06)
(0.00544941 0 -2.68936e-06)
(0.0054535 0 -8.30919e-06)
(0.00546217 0 -1.39029e-05)
(0.00547542 0 -1.95539e-05)
(0.00549334 0 -2.53479e-05)
(0.00551608 0 -3.13752e-05)
(0.00554384 0 -3.77321e-05)
(0.00557695 0 -4.45233e-05)
(0.00561579 0 -5.1864e-05)
(0.00566086 0 -5.98827e-05)
(0.00571275 0 -6.87249e-05)
(0.00577218 0 -7.85571e-05)
(0.00584004 0 -8.95723e-05)
(0.00591734 0 -0.000101997)
(0.00600533 0 -0.000116097)
(0.00610546 0 -0.000132192)
(0.00621947 0 -0.000150667)
(0.00634944 0 -0.000171987)
(0.00649786 0 -0.000196725)
(0.00666771 0 -0.000225588)
(0.0068626 0 -0.000259455)
(0.00708695 0 -0.00029943)
(0.00734614 0 -0.000346913)
(0.00764686 0 -0.000403685)
(0.00799746 0 -0.000472037)
(0.00840856 0 -0.000554943)
(0.00889389 0 -0.000656315)
(0.00947168 0 -0.000781413)
(0.0101671 0 -0.000937625)
(0.011017 0 -0.00113634)
(0.0120801 0 -0.00139845)
(0.0134513 0 -0.00176935)
(0.0152813 0 -0.00235004)
(0.0178541 0 -0.00335931)
(0.0219169 0 -0.00539617)
(0.0288608 0 -0.0106535)
(0.0363944 0 -0.0258457)
(0.033127 0 -0.05815)
(0.0155197 0 -0.0758486)
(-0.00759464 0 -0.077187)
(-0.0262412 0 -0.0604103)
(-0.0296709 0 -0.0269174)
(-0.0217608 0 -0.0110717)
(-0.0145634 0 -0.00550807)
(-0.0104095 0 -0.00332868)
(-0.00782355 0 -0.00225562)
(-0.00601886 0 -0.00165205)
(-0.00469541 0 -0.00127806)
(-0.00369201 0 -0.00102079)
(-0.00290638 0 -0.000829067)
(-0.00227629 0 -0.000679515)
(-0.00176343 0 -0.000559665)
(-0.0013426 0 -0.000461583)
(-0.000996291 0 -0.000379654)
(-0.000712031 0 -0.000309704)
(-0.000480407 0 -0.000248651)
(-0.000293089 0 -0.000194379)
(-0.000144315 0 -0.000145079)
(-6.69044e-05 0 -9.83177e-05)
(-0.00026567 0 0.000730592)
(-0.000556225 0 0.000902797)
(-0.00104388 0 0.00102119)
(-0.00155854 0 0.00108807)
(-0.00208205 0 0.00110564)
(-0.00259802 0 0.00107519)
(-0.00308523 0 0.000997958)
(-0.00352168 0 0.000875039)
(-0.00388592 0 0.000707302)
(-0.00415689 0 0.000495647)
(-0.00431401 0 0.000241318)
(-0.00433754 0 -5.37769e-05)
(-0.00420895 0 -0.000386755)
(-0.00391174 0 -0.000752657)
(-0.0034326 0 -0.0011439)
(-0.00276244 0 -0.00155019)
(-0.00189807 0 -0.00195868)
(-0.000843378 0 -0.00235467)
(0.000397405 0 -0.00272164)
(0.00179396 0 -0.00303346)
(0.00331678 0 -0.00327247)
(0.00492955 0 -0.00342876)
(0.00659157 0 -0.00349723)
(0.00826162 0 -0.00347767)
(0.00989984 0 -0.00337446)
(0.0114696 0 -0.00319585)
(0.0129388 0 -0.002953)
(0.0142813 0 -0.00265887)
(0.0154768 0 -0.00232725)
(0.0165113 0 -0.00197182)
(0.0173769 0 -0.00160547)
(0.018071 0 -0.00123979)
(0.018596 0 -0.000884702)
(0.0189579 0 -0.000548304)
(0.0191664 0 -0.000236737)
(0.0192332 0 4.59235e-05)
(0.0191723 0 0.000297636)
(0.0189977 0 0.000517659)
(0.018724 0 0.000705909)
(0.018366 0 0.000862983)
(0.0179379 0 0.000990074)
(0.0174534 0 0.00108887)
(0.0169255 0 0.00116144)
(0.0163662 0 0.00121013)
(0.0157862 0 0.00123743)
(0.0151953 0 0.00124594)
(0.014602 0 0.00123824)
(0.0140138 0 0.00121683)
(0.0134367 0 0.00118409)
(0.0128761 0 0.00114226)
(0.0123359 0 0.00109336)
(0.0118193 0 0.00103923)
(0.0113287 0 0.000981483)
(0.0108658 0 0.000921533)
(0.0104314 0 0.000860583)
(0.010026 0 0.000799643)
(0.00964946 0 0.000739544)
(0.00930141 0 0.000680955)
(0.00898109 0 0.000624397)
(0.0086875 0 0.000570263)
(0.00841948 0 0.000518833)
(0.00817574 0 0.000470289)
(0.0079549 0 0.000424734)
(0.00775555 0 0.000382202)
(0.00757624 0 0.000342669)
(0.00741557 0 0.00030607)
(0.00727215 0 0.000272303)
(0.00714463 0 0.000241237)
(0.00703177 0 0.000212725)
(0.00693234 0 0.000186602)
(0.00684523 0 0.000162696)
(0.00676941 0 0.000140829)
(0.00670392 0 0.00012082)
(0.00664789 0 0.000102489)
(0.00660055 0 8.5657e-05)
(0.00656121 0 7.0149e-05)
(0.00652924 0 5.57931e-05)
(0.00650412 0 4.2422e-05)
(0.00648541 0 2.98729e-05)
(0.00647273 0 1.79876e-05)
(0.00646579 0 6.61278e-06)
(0.00646438 0 -4.4002e-06)
(0.00646834 0 -1.52011e-05)
(0.00647759 0 -2.59451e-05)
(0.00649215 0 -3.67914e-05)
(0.00651209 0 -4.79037e-05)
(0.00653757 0 -5.94542e-05)
(0.00656883 0 -7.16264e-05)
(0.00660621 0 -8.46192e-05)
(0.00665015 0 -9.86514e-05)
(0.00670119 0 -0.000113967)
(0.00676 0 -0.000130841)
(0.00682739 0 -0.000149588)
(0.00690431 0 -0.000170573)
(0.00699192 0 -0.000194223)
(0.00709156 0 -0.000221039)
(0.00720487 0 -0.000251623)
(0.00733374 0 -0.000286697)
(0.00748046 0 -0.000327138)
(0.00764774 0 -0.00037402)
(0.00783884 0 -0.000428672)
(0.00805769 0 -0.000492752)
(0.00830906 0 -0.000568352)
(0.00859879 0 -0.000658137)
(0.00893413 0 -0.000765554)
(0.00932418 0 -0.000895129)
(0.00978056 0 -0.00105294)
(0.0103185 0 -0.00124737)
(0.0109583 0 -0.00149049)
(0.0117283 0 -0.00180063)
(0.0126692 0 -0.0022075)
(0.0138415 0 -0.00276325)
(0.0153347 0 -0.00356578)
(0.0172763 0 -0.00480322)
(0.0198425 0 -0.00683378)
(0.0232511 0 -0.0103668)
(0.027392 0 -0.0169119)
(0.0299905 0 -0.0291038)
(0.0254824 0 -0.046752)
(0.0127189 0 -0.0578419)
(-0.00398817 0 -0.0587113)
(-0.017483 0 -0.0482479)
(-0.022185 0 -0.0301466)
(-0.0194599 0 -0.0175009)
(-0.0151411 0 -0.0106358)
(-0.0115988 0 -0.00689488)
(-0.00895044 0 -0.00474102)
(-0.00696989 0 -0.00343884)
(-0.00547089 0 -0.00260728)
(-0.00431591 0 -0.00204176)
(-0.00340702 0 -0.00163436)
(-0.00267814 0 -0.00132723)
(-0.00208523 0 -0.00108743)
(-0.00159832 0 -0.000894756)
(-0.00119649 0 -0.000735923)
(-0.000864854 0 -0.00060178)
(-0.000592192 0 -0.000485916)
(-0.000368342 0 -0.000383918)
(-0.000185549 0 -0.000292568)
(-8.55888e-05 0 -0.000210291)
(-0.000294953 0 0.00113132)
(-0.000617135 0 0.00137513)
(-0.00115369 0 0.00154292)
(-0.001715 0 0.00163566)
(-0.00228224 0 0.00165557)
(-0.00283813 0 0.00160429)
(-0.00335991 0 0.00148333)
(-0.00382389 0 0.00129398)
(-0.00420693 0 0.00103737)
(-0.00448623 0 0.000714824)
(-0.00463949 0 0.00032828)
(-0.00464529 0 -0.000119246)
(-0.00448356 0 -0.000623087)
(-0.00413663 0 -0.00117546)
(-0.00359022 0 -0.00176485)
(-0.00283475 0 -0.00237581)
(-0.00186713 0 -0.00298922)
(-0.000691497 0 -0.00358305)
(0.000687278 0 -0.00413026)
(0.00223082 0 -0.00459112)
(0.00390885 0 -0.00494255)
(0.00568014 0 -0.00517024)
(0.00750019 0 -0.00526704)
(0.0093243 0 -0.00523311)
(0.0111097 0 -0.00507538)
(0.0128173 0 -0.00480641)
(0.0144135 0 -0.00444287)
(0.0158711 0 -0.00400398)
(0.0171693 0 -0.00350998)
(0.0182939 0 -0.00298089)
(0.0192371 0 -0.00243551)
(0.0199966 0 -0.00189068)
(0.0205749 0 -0.00136086)
(0.0209788 0 -0.000857844)
(0.0212181 0 -0.000390659)
(0.0213049 0 3.44777e-05)
(0.0212537 0 0.000414189)
(0.0210793 0 0.000747124)
(0.0207969 0 0.001033)
(0.0204223 0 0.00127257)
(0.0199704 0 0.00146745)
(0.019456 0 0.00162003)
(0.0188927 0 0.00173329)
(0.0182936 0 0.00181059)
(0.0176702 0 0.00185559)
(0.0170331 0 0.00187209)
(0.0163917 0 0.00186389)
(0.0157541 0 0.0018347)
(0.015127 0 0.00178809)
(0.0145163 0 0.00172738)
(0.0139267 0 0.00165564)
(0.0133616 0 0.00157563)
(0.0128239 0 0.00148982)
(0.0123156 0 0.00140035)
(0.0118377 0 0.00130908)
(0.011391 0 0.00121756)
(0.0109754 0 0.00112708)
(0.0105907 0 0.00103869)
(0.0102361 0 0.000953201)
(0.00991063 0 0.000871245)
(0.0096131 0 0.000793267)
(0.00934217 0 0.00071957)
(0.00909638 0 0.000650327)
(0.00887423 0 0.00058561)
(0.00867417 0 0.000525398)
(0.00849467 0 0.000469605)
(0.00833425 0 0.000418086)
(0.00819144 0 0.000370654)
(0.00806487 0 0.000327091)
(0.00795321 0 0.000287154)
(0.00785524 0 0.000250585)
(0.00776981 0 0.000217119)
(0.00769588 0 0.000186483)
(0.00763249 0 0.000158405)
(0.00757878 0 0.000132617)
(0.00753397 0 0.000108852)
(0.00749738 0 8.68515e-05)
(0.00746844 0 6.63604e-05)
(0.00744662 0 4.71321e-05)
(0.00743152 0 2.89258e-05)
(0.00742281 0 1.15076e-05)
(0.00742022 0 -5.34956e-06)
(0.00742361 0 -2.18722e-05)
(0.00743285 0 -3.82941e-05)
(0.00744796 0 -5.4856e-05)
(0.007469 0 -7.1806e-05)
(0.00749612 0 -8.94039e-05)
(0.00752959 0 -0.000107927)
(0.00756975 0 -0.000127674)
(0.00761705 0 -0.000148974)
(0.00767207 0 -0.000172192)
(0.00773551 0 -0.00019774)
(0.0078082 0 -0.000226087)
(0.00789114 0 -0.000257774)
(0.00798554 0 -0.000293434)
(0.00809279 0 -0.000333812)
(0.00821456 0 -0.000379792)
(0.00835282 0 -0.000432439)
(0.00850989 0 -0.00049304)
(0.00868853 0 -0.000563173)
(0.00889201 0 -0.000644784)
(0.00912427 0 -0.000740302)
(0.00939006 0 -0.000852792)
(0.00969512 0 -0.000986174)
(0.0100465 0 -0.00114554)
(0.0104531 0 -0.00133762)
(0.0109258 0 -0.00157152)
(0.0114788 0 -0.00185996)
(0.0121305 0 -0.00222121)
(0.0129052 0 -0.0026827)
(0.0138348 0 -0.00328726)
(0.0149608 0 -0.00410445)
(0.0163332 0 -0.00525041)
(0.0180001 0 -0.00692017)
(0.0199788 0 -0.0094345)
(0.0221719 0 -0.0133055)
(0.0240941 0 -0.0192908)
(0.0241991 0 -0.0281004)
(0.0198317 0 -0.0385723)
(0.0105861 0 -0.045472)
(-0.0010956 0 -0.0460818)
(-0.0108761 0 -0.0396958)
(-0.0154364 0 -0.0290923)
(-0.0153341 0 -0.0199822)
(-0.0133173 0 -0.0137087)
(-0.0110103 0 -0.0096114)
(-0.0089326 0 -0.00693923)
(-0.00719329 0 -0.00516937)
(-0.00577637 0 -0.00396489)
(-0.00462972 0 -0.00311599)
(-0.00369815 0 -0.00249551)
(-0.0029354 0 -0.00202642)
(-0.00230589 0 -0.00166094)
(-0.00178305 0 -0.00136839)
(-0.00134718 0 -0.00112827)
(-0.000983717 0 -0.000926463)
(-0.000681304 0 -0.000753109)
(-0.000429223 0 -0.000601436)
(-0.000219133 0 -0.000466858)
(-0.00010184 0 -0.000347469)
(-0.000317829 0 0.00156287)
(-0.000663318 0 0.00188211)
(-0.00123722 0 0.0020993)
(-0.00183442 0 0.00221614)
(-0.00243512 0 0.00223536)
(-0.00302123 0 0.00215907)
(-0.00356871 0 0.00198907)
(-0.00405259 0 0.00172678)
(-0.00444837 0 0.00137355)
(-0.00473184 0 0.000931072)
(-0.0048792 0 0.000401972)
(-0.00486758 0 -0.000209568)
(-0.00467545 0 -0.000896953)
(-0.00428387 0 -0.00164939)
(-0.00367742 0 -0.00245119)
(-0.0028458 0 -0.00328141)
(-0.00178584 0 -0.00411415)
(-0.000500746 0 -0.0049195)
(0.00100127 0 -0.00565677)
(0.0026766 0 -0.00627304)
(0.00449265 0 -0.0067399)
(0.00640329 0 -0.00703855)
(0.00835992 0 -0.00716003)
(0.0103143 0 -0.0071054)
(0.0122206 0 -0.00688482)
(0.014038 0 -0.00651586)
(0.0157318 0 -0.0060214)
(0.0172742 0 -0.0054274)
(0.018645 0 -0.00476098)
(0.0198307 0 -0.00404873)
(0.0208244 0 -0.0033154)
(0.0216247 0 -0.00258311)
(0.0222352 0 -0.00187075)
(0.0226634 0 -0.00119372)
(0.0229198 0 -0.000563842)
(0.0230171 0 1.06028e-05)
(0.02297 0 0.000524878)
(0.0227938 0 0.000976906)
(0.0225044 0 0.00136616)
(0.0221176 0 0.00169349)
(0.0216493 0 0.00196094)
(0.0211144 0 0.00217156)
(0.0205274 0 0.00232921)
(0.0199014 0 0.00243831)
(0.0192488 0 0.00250366)
(0.0185805 0 0.00253027)
(0.0179063 0 0.00252317)
(0.0172348 0 0.00248732)
(0.0165732 0 0.00242748)
(0.0159277 0 0.00234812)
(0.0153032 0 0.00225337)
(0.0147038 0 0.00214698)
(0.0141324 0 0.00203229)
(0.0135913 0 0.00191225)
(0.0130818 0 0.0017894)
(0.0126047 0 0.00166588)
(0.0121602 0 0.00154348)
(0.0117481 0 0.00142366)
(0.0113678 0 0.00130756)
(0.0110182 0 0.00119609)
(0.0106981 0 0.00108987)
(0.0104063 0 0.000989347)
(0.0101413 0 0.000894792)
(0.00990138 0 0.00080632)
(0.00968508 0 0.000723926)
(0.00949077 0 0.00064751)
(0.00931689 0 0.00057689)
(0.00916189 0 0.000511823)
(0.00902432 0 0.000452021)
(0.00890279 0 0.000397162)
(0.00879599 0 0.000346903)
(0.0087027 0 0.000300883)
(0.00862181 0 0.000258739)
(0.00855228 0 0.0002201)
(0.00849319 0 0.000184604)
(0.00844372 0 0.000151888)
(0.00840313 0 0.000121599)
(0.00837077 0 9.3392e-05)
(0.00834611 0 6.69303e-05)
(0.00832868 0 4.18854e-05)
(0.00831812 0 1.79372e-05)
(0.00831415 0 -5.2254e-06)
(0.00831658 0 -2.79104e-05)
(0.00832529 0 -5.04341e-05)
(0.00834025 0 -7.31223e-05)
(0.00836152 0 -9.63111e-05)
(0.00838926 0 -0.000120352)
(0.0084237 0 -0.000145619)
(0.00846519 0 -0.000172514)
(0.00851417 0 -0.000201477)
(0.00857123 0 -0.000232998)
(0.00863704 0 -0.000267623)
(0.00871245 0 -0.000305976)
(0.00879845 0 -0.000348773)
(0.0088962 0 -0.000396847)
(0.0090071 0 -0.000451175)
(0.00913277 0 -0.000512917)
(0.0092751 0 -0.000583457)
(0.00943632 0 -0.000664469)
(0.00961906 0 -0.000757992)
(0.0098264 0 -0.000866535)
(0.010062 0 -0.000993217)
(0.0103302 0 -0.00114196)
(0.0106361 0 -0.00131777)
(0.010986 0 -0.00152711)
(0.0113873 0 -0.00177849)
(0.0118492 0 -0.00208334)
(0.0123827 0 -0.00245735)
(0.0130012 0 -0.00292261)
(0.0137206 0 -0.00351099)
(0.0145586 0 -0.00426956)
(0.0155323 0 -0.0052689)
(0.0166507 0 -0.00661523)
(0.0178976 0 -0.00846575)
(0.0191959 0 -0.0110424)
(0.0203402 0 -0.014632)
(0.0208592 0 -0.0195294)
(0.0198051 0 -0.0257709)
(0.0159305 0 -0.0323609)
(0.00916611 0 -0.0367032)
(0.000990617 0 -0.0371352)
(-0.00616003 0 -0.0332196)
(-0.0102019 0 -0.0266468)
(-0.0113168 0 -0.0202292)
(-0.0107676 0 -0.0151081)
(-0.00954758 0 -0.0113129)
(-0.00816162 0 -0.00857276)
(-0.00683424 0 -0.00660381)
(-0.00565111 0 -0.00517714)
(-0.00463089 0 -0.00412577)
(-0.00376342 0 -0.00333431)
(-0.00302921 0 -0.00272479)
(-0.00240804 0 -0.00224456)
(-0.00188199 0 -0.00185765)
(-0.00143627 0 -0.00153901)
(-0.00105909 0 -0.0012709)
(-0.000740711 0 -0.00104066)
(-0.000471203 0 -0.000839432)
(-0.000242776 0 -0.000661219)
(-0.000113621 0 -0.00050308)
(-0.00033408 0 0.00202024)
(-0.000696511 0 0.00241858)
(-0.00129793 0 0.00268605)
(-0.00192178 0 0.00282608)
(-0.00254743 0 0.00284234)
(-0.00315609 0 0.00273762)
(-0.00372275 0 0.00251401)
(-0.0042214 0 0.00217307)
(-0.00462642 0 0.00171626)
(-0.00491235 0 0.00114554)
(-0.00505402 0 0.000464154)
(-0.00502706 0 -0.000322568)
(-0.00480843 0 -0.00120607)
(-0.00437765 0 -0.00217246)
(-0.00371783 0 -0.00320164)
(-0.00281761 0 -0.0042668)
(-0.00167352 0 -0.00533465)
(-0.000286597 0 -0.00636658)
(0.00132867 0 -0.00730433)
(0.00312671 0 -0.00808322)
(0.00507024 0 -0.00866835)
(0.00710806 0 -0.00903635)
(0.00918694 0 -0.00917686)
(0.0112545 0 -0.00909253)
(0.0132621 0 -0.00879771)
(0.0151668 0 -0.00831602)
(0.0169333 0 -0.00767744)
(0.0185343 0 -0.00691553)
(0.0199504 0 -0.0060648)
(0.0211699 0 -0.0051587)
(0.0221875 0 -0.00422812)
(0.0230038 0 -0.00330039)
(0.0236239 0 -0.00239867)
(0.0240566 0 -0.00154177)
(0.0243136 0 -0.000744079)
(0.0244085 0 -1.57192e-05)
(0.0243562 0 0.000637374)
(0.0241723 0 0.00121239)
(0.0238732 0 0.00170857)
(0.0234751 0 0.00212685)
(0.0229937 0 0.00246973)
(0.0224444 0 0.00274094)
(0.0218417 0 0.00294523)
(0.0211989 0 0.00308807)
(0.0205284 0 0.00317542)
(0.0198414 0 0.00321348)
(0.0191477 0 0.00320855)
(0.018456 0 0.00316681)
(0.0177739 0 0.00309424)
(0.0171074 0 0.00299644)
(0.0164619 0 0.00287865)
(0.0158415 0 0.0027456)
(0.0152493 0 0.00260156)
(0.0146876 0 0.00245027)
(0.014158 0 0.00229499)
(0.0136615 0 0.00213849)
(0.0131982 0 0.00198308)
(0.0127681 0 0.00183066)
(0.0123706 0 0.00168273)
(0.0120047 0 0.00154047)
(0.0116694 0 0.00140473)
(0.0113632 0 0.00127611)
(0.0110847 0 0.00115498)
(0.0108324 0 0.00104153)
(0.0106046 0 0.000935765)
(0.0103996 0 0.000837588)
(0.010216 0 0.000746781)
(0.0100521 0 0.000663052)
(0.00990647 0 0.000586045)
(0.0097776 0 0.00051536)
(0.00966417 0 0.000450564)
(0.00956491 0 0.000391205)
(0.00947867 0 0.000336822)
(0.00940437 0 0.000286948)
(0.00934105 0 0.000241118)
(0.00928782 0 0.000198874)
(0.00924393 0 0.000159766)
(0.0092087 0 0.000123353)
(0.00918154 0 8.9204e-05)
(0.00916197 0 5.69001e-05)
(0.0091496 0 2.60315e-05)
(0.00914411 0 -3.80093e-06)
(0.00914529 0 -3.29906e-05)
(0.009153 0 -6.19385e-05)
(0.0091672 0 -9.10576e-05)
(0.00918793 0 -0.000120773)
(0.00921531 0 -0.00015153)
(0.00924957 0 -0.000183799)
(0.00929103 0 -0.000218085)
(0.00934011 0 -0.000254939)
(0.00939736 0 -0.000294969)
(0.00946342 0 -0.000338856)
(0.0095391 0 -0.000387368)
(0.00962532 0 -0.000441386)
(0.0097232 0 -0.000501931)
(0.00983401 0 -0.000570193)
(0.00995926 0 -0.000647575)
(0.0101007 0 -0.000735749)
(0.0102603 0 -0.000836721)
(0.0104404 0 -0.000952922)
(0.0106438 0 -0.00108732)
(0.0108735 0 -0.0012436)
(0.0111332 0 -0.00142633)
(0.0114271 0 -0.00164131)
(0.01176 0 -0.00189593)
(0.0121376 0 -0.00219982)
(0.012566 0 -0.00256563)
(0.0130523 0 -0.00301032)
(0.0136037 0 -0.00355697)
(0.0142269 0 -0.00423733)
(0.0149254 0 -0.00509553)
(0.015696 0 -0.00619275)
(0.0165189 0 -0.00761246)
(0.0173426 0 -0.00946382)
(0.0180567 0 -0.0118775)
(0.0184528 0 -0.0149829)
(0.0181693 0 -0.0188416)
(0.0166535 0 -0.0232824)
(0.013338 0 -0.0275837)
(0.00829569 0 -0.0303671)
(0.00244785 0 -0.0306706)
(-0.00286719 0 -0.028239)
(-0.00632238 0 -0.0240279)
(-0.00791874 0 -0.0195026)
(-0.00821201 0 -0.0154871)
(-0.00777506 0 -0.0122128)
(-0.00699401 0 -0.00964822)
(-0.00609593 0 -0.00767522)
(-0.00520267 0 -0.00616371)
(-0.0043719 0 -0.00500001)
(-0.00362544 0 -0.00409446)
(-0.00296688 0 -0.00337982)
(-0.00239156 0 -0.00280671)
(-0.00189176 0 -0.00233911)
(-0.00145926 0 -0.00195059)
(-0.00108654 0 -0.00162171)
(-0.000766703 0 -0.00133813)
(-0.000491637 0 -0.00108944)
(-0.000254967 0 -0.000868414)
(-0.000119888 0 -0.00067086)
(-0.000344687 0 0.00249623)
(-0.00071852 0 0.00297652)
(-0.00133876 0 0.00329523)
(-0.00198117 0 0.00345803)
(-0.00262451 0 0.00346989)
(-0.0032495 0 0.00333438)
(-0.0038304 0 0.0030539)
(-0.00434038 0 0.00263007)
(-0.00475284 0 0.00206431)
(-0.00504116 0 0.00135868)
(-0.00517878 0 0.000516897)
(-0.00513972 0 -0.000454707)
(-0.00489919 0 -0.00154569)
(-0.0044348 0 -0.00273907)
(-0.00372779 0 -0.00401021)
(-0.0027653 0 -0.00532599)
(-0.00154322 0 -0.00664502)
(-5.96563e-05 0 -0.00791876)
(0.00166338 0 -0.00906769)
(0.00357916 0 -0.010016)
(0.00564432 0 -0.0107211)
(0.00780204 0 -0.011155)
(0.00999357 0 -0.0113063)
(0.0121619 0 -0.0111803)
(0.0142548 0 -0.0107967)
(0.0162278 0 -0.0101865)
(0.0180452 0 -0.00938821)
(0.0196807 0 -0.00844375)
(0.0211166 0 -0.00739579)
(0.0223438 0 -0.00628504)
(0.0233595 0 -0.00514859)
(0.024167 0 -0.00401887)
(0.0247736 0 -0.00292309)
(0.0251902 0 -0.00188312)
(0.0254299 0 -0.000915532)
(0.0255076 0 -3.19115e-05)
(0.0254384 0 0.000760923)
(0.0252387 0 0.00145956)
(0.0249249 0 0.00206305)
(0.0245133 0 0.00257255)
(0.0240198 0 0.00299104)
(0.0234595 0 0.00332301)
(0.0228468 0 0.00357413)
(0.0221949 0 0.00375093)
(0.0215159 0 0.00386053)
(0.0208207 0 0.00391034)
(0.0201192 0 0.00390788)
(0.0194197 0 0.00386056)
(0.0187296 0 0.00377551)
(0.0180552 0 0.00365951)
(0.0174015 0 0.00351881)
(0.0167727 0 0.00335917)
(0.0161719 0 0.00318574)
(0.0156015 0 0.00300307)
(0.0150631 0 0.00281514)
(0.0145577 0 0.00262533)
(0.0140857 0 0.00243651)
(0.0136468 0 0.00225101)
(0.0132407 0 0.00207071)
(0.0128665 0 0.00189707)
(0.0125231 0 0.00173118)
(0.0122092 0 0.00157381)
(0.0119233 0 0.00142544)
(0.0116639 0 0.00128633)
(0.0114294 0 0.00115653)
(0.0112182 0 0.00103593)
(0.0110287 0 0.000924289)
(0.0108594 0 0.000821277)
(0.0107087 0 0.00072647)
(0.0105751 0 0.000639391)
(0.0104574 0 0.000559524)
(0.0103542 0 0.000486324)
(0.0102644 0 0.000419234)
(0.0101868 0 0.000357687)
(0.0101204 0 0.00030112)
(0.0100645 0 0.000248975)
(0.0100181 0 0.000200705)
(0.00998064 0 0.000155771)
(0.00995143 0 0.000113649)
(0.00993 0 7.38266e-05)
(0.00991592 0 3.58034e-05)
(0.00990886 0 -9.09362e-07)
(0.00990859 0 -3.67923e-05)
(0.00991495 0 -7.23314e-05)
(0.00992787 0 -0.000108026)
(0.00994736 0 -0.00014439)
(0.00997352 0 -0.000181959)
(0.0100066 0 -0.000221298)
(0.0100467 0 -0.000263011)
(0.0100945 0 -0.000307754)
(0.0101502 0 -0.000356247)
(0.0102146 0 -0.000409293)
(0.0102883 0 -0.000467794)
(0.0103721 0 -0.000532778)
(0.0104672 0 -0.000605427)
(0.0105745 0 -0.000687113)
(0.0106954 0 -0.000779447)
(0.0108315 0 -0.00088433)
(0.0109843 0 -0.00100403)
(0.011156 0 -0.00114127)
(0.0113485 0 -0.00129936)
(0.0115645 0 -0.00148233)
(0.0118066 0 -0.00169519)
(0.0120778 0 -0.00194414)
(0.0123815 0 -0.00223702)
(0.0127208 0 -0.0025838)
(0.0130993 0 -0.00299728)
(0.0135195 0 -0.00349409)
(0.0139829 0 -0.00409594)
(0.0144882 0 -0.00483128)
(0.0150283 0 -0.00573718)
(0.0155862 0 -0.00686113)
(0.0161271 0 -0.00826168)
(0.016587 0 -0.0100057)
(0.0168569 0 -0.0121577)
(0.0167642 0 -0.0147551)
(0.0160593 0 -0.0177574)
(0.0144315 0 -0.020956)
(0.0116359 0 -0.0238528)
(0.00778741 0 -0.0256845)
(0.00346046 0 -0.0258958)
(-0.000547587 0 -0.0243651)
(-0.00347384 0 -0.0215836)
(-0.0051818 0 -0.0183622)
(-0.00591733 0 -0.0152597)
(-0.00599472 0 -0.0125329)
(-0.00567863 0 -0.0102516)
(-0.00515635 0 -0.00839333)
(-0.00454827 0 -0.00689883)
(-0.00392576 0 -0.00570084)
(-0.00332775 0 -0.00473757)
(-0.00277329 0 -0.0039573)
(-0.00226997 0 -0.00331862)
(-0.00181915 0 -0.00278916)
(-0.00141912 0 -0.00234382)
(-0.00106703 0 -0.00196327)
(-0.000759306 0 -0.00163265)
(-0.000490296 0 -0.00134072)
(-0.000255561 0 -0.00107934)
(-0.000120573 0 -0.000843103)
(-0.000350481 0 0.0029836)
(-0.000730738 0 0.00354791)
(-0.00136192 0 0.00391879)
(-0.00201551 0 0.00410448)
(-0.00267005 0 0.0041114)
(-0.00330597 0 0.00394395)
(-0.00389707 0 0.00360482)
(-0.00441589 0 0.00309549)
(-0.004835 0 0.00241714)
(-0.00512661 0 0.0015717)
(-0.00526271 0 0.000563043)
(-0.00521549 0 -0.000601704)
(-0.00495811 0 -0.00191042)
(-0.00446587 0 -0.00334316)
(-0.00371761 0 -0.00487062)
(-0.00269842 0 -0.00645296)
(-0.00140318 0 -0.0080398)
(0.000173595 0 -0.00957133)
(0.00200147 0 -0.0109425)
(0.00403273 0 -0.0120667)
(0.00621675 0 -0.0128924)
(0.00849006 0 -0.0133868)
(0.0107874 0 -0.0135379)
(0.0130462 0 -0.0133549)
(0.0152108 0 -0.0128646)
(0.0172347 0 -0.0121071)
(0.0190825 0 -0.0111306)
(0.0207293 0 -0.00998709)
(0.0221605 0 -0.00872792)
(0.0233699 0 -0.00740147)
(0.0243584 0 -0.00605114)
(0.0251326 0 -0.00471426)
(0.025703 0 -0.00342173)
(0.0260828 0 -0.00219798)
(0.0262871 0 -0.00106129)
(0.0263321 0 -2.41623e-05)
(0.0262338 0 0.000906119)
(0.026009 0 0.00172577)
(0.0256743 0 0.00243383)
(0.025246 0 0.00303181)
(0.0247399 0 0.00352333)
(0.0241708 0 0.00391374)
(0.0235525 0 0.00420969)
(0.0228978 0 0.00441882)
(0.0222183 0 0.00454941)
(0.0215244 0 0.00461005)
(0.0208253 0 0.00460947)
(0.0201292 0 0.00455624)
(0.019443 0 0.00445864)
(0.0187726 0 0.0043245)
(0.0181228 0 0.00416112)
(0.0174975 0 0.00397518)
(0.0168999 0 0.00377269)
(0.0163321 0 0.00355899)
(0.0157958 0 0.00333874)
(0.0152919 0 0.00311594)
(0.0148208 0 0.00289396)
(0.0143824 0 0.00267558)
(0.0139762 0 0.00246305)
(0.0136015 0 0.00225812)
(0.0132572 0 0.00206211)
(0.0129421 0 0.00187596)
(0.0126548 0 0.00170028)
(0.0123939 0 0.00153541)
(0.0121577 0 0.00138143)
(0.0119446 0 0.00123824)
(0.0117533 0 0.0011056)
(0.011582 0 0.000983112)
(0.0114294 0 0.000870305)
(0.011294 0 0.000766632)
(0.0111744 0 0.000671494)
(0.0110693 0 0.000584257)
(0.0109777 0 0.000504269)
(0.0108984 0 0.00043087)
(0.0108304 0 0.000363399)
(0.0107728 0 0.0003012)
(0.0107249 0 0.000243627)
(0.0106859 0 0.00019005)
(0.0106551 0 0.000139848)
(0.0106322 0 9.24196e-05)
(0.0106166 0 4.7173e-05)
(0.010608 0 3.53096e-06)
(0.0106062 0 -3.90735e-05)
(0.0106109 0 -8.12096e-05)
(0.0106221 0 -0.00012346)
(0.0106398 0 -0.000166424)
(0.010664 0 -0.000210723)
(0.0106949 0 -0.00025701)
(0.0107327 0 -0.000305983)
(0.0107778 0 -0.000358392)
(0.0108305 0 -0.00041506)
(0.0108915 0 -0.000476893)
(0.0109612 0 -0.000544911)
(0.0110404 0 -0.000620263)
(0.01113 0 -0.000704265)
(0.0112309 0 -0.000798432)
(0.0113441 0 -0.00090453)
(0.0114709 0 -0.00102463)
(0.0116127 0 -0.00116117)
(0.0117709 0 -0.00131706)
(0.0119471 0 -0.00149579)
(0.0121429 0 -0.00170158)
(0.0123603 0 -0.00193957)
(0.0126009 0 -0.00221605)
(0.0128663 0 -0.00253879)
(0.0131578 0 -0.00291744)
(0.0134758 0 -0.00336407)
(0.0138196 0 -0.00389378)
(0.0141858 0 -0.00452547)
(0.0145673 0 -0.00528257)
(0.0149502 0 -0.00619366)