/*--------------------------------*- C++ -*----------------------------------*\
  =========                 |
  \\      /  F ield         | OpenFOAM: The Open Source CFD Toolbox
   \\    /   O peration     | Website:  https://openfoam.org
    \\  /    A nd           | Version:  12
     \\/     M anipulation  |
\*---------------------------------------------------------------------------*/
FoamFile
{
    format      ascii;
    class       volScalarField;
    location    "415";
    object      T;
}
// * * * * * * * * * * * * * * * * * * * * * * * * * * * * * * * * * * * * * //

dimensions      [];

internalField   nonuniform List<scalar> 
4480
(
8.29922e-07
5.41085e-05
0.00982491
0.0767277
0.190592
0.311042
0.418894
0.508942
0.581841
0.640104
0.686491
0.723446
0.752958
0.776602
0.795593
0.810867
0.823144
0.832983
0.840809
0.846957
0.851692
0.855219
0.857702
0.859267
0.860018
0.860039
0.859395
0.858395
0.857381
0.85635
0.855297
0.854216
0.8531
0.851946
0.850745
0.849495
0.848188
0.846819
0.845378
0.843862
0.842266
0.840576
0.838786
0.836893
0.834884
0.83275
0.830481
0.828074
0.82551
0.822778
0.819875
0.81679
0.813501
0.810003
0.806284
0.802325
0.798124
0.793665
0.788928
0.783909
0.778585
0.77295
0.766987
0.760687
0.754027
0.747009
0.739602
0.731811
0.723603
0.714985
0.705926
0.696423
0.686456
0.676013
0.665077
0.653631
0.641656
0.629132
0.616035
0.60234
0.588016
0.573031
0.557349
0.541017
0.524025
0.506348
0.487975
0.468909
0.449169
0.428805
0.407891
0.38654
0.364894
0.343131
0.321457
0.300097
0.279295
0.259292
0.240325
0.222615
0.206353
0.191704
0.178792
0.167717
0.15854
0.151303
0.14603
0.142739
0.141449
0.142193
0.145029
0.15004
0.157345
0.167107
0.179517
0.194802
0.213203
0.23496
0.260297
0.28949
0.323183
0.362915
0.411269
0.474289
0.575127
0.727372
0.838736
0.926848
0.912011
0.788816
0.677055
0.524685
0.399997
0.308229
0.232099
0.167275
0.11222
0.0664896
0.0312698
0.00799719
3.54409e-07
0.00185855
0.0657025
0.237714
0.422204
0.571719
0.681264
0.758737
0.813154
0.851644
0.879243
0.899364
0.914295
0.925557
0.934166
0.940828
0.946021
0.950085
0.95326
0.955727
0.957618
0.959024
0.960024
0.96067
0.961009
0.961069
0.96088
0.960323
0.95931
0.957888
0.956099
0.953986
0.951592
0.948955
0.946106
0.943083
0.939914
0.936624
0.933232
0.929761
0.926227
0.922642
0.919013
0.915352
0.911664
0.907947
0.904208
0.900442
0.896648
0.892822
0.888957
0.885056
0.881103
0.877093
0.873021
0.868873
0.864651
0.860338
0.855927
0.851414
0.846782
0.842035
0.837152
0.832132
0.826969
0.821658
0.816184
0.810542
0.804732
0.798749
0.792581
0.786227
0.779681
0.772941
0.765995
0.758846
0.751488
0.743912
0.736127
0.728118
0.719881
0.711425
0.702733
0.693827
0.684724
0.675412
0.665895
0.656181
0.646264
0.636159
0.625872
0.615415
0.604807
0.594076
0.583254
0.57238
0.561516
0.55072
0.540078
0.52969
0.51967
0.510148
0.501278
0.493221
0.486169
0.480308
0.475855
0.473016
0.472017
0.473074
0.4764
0.482191
0.490635
0.501888
0.516074
0.533284
0.553556
0.576899
0.603294
0.632762
0.665461
0.701765
0.742142
0.78695
0.835855
0.884943
0.926324
0.954629
0.936691
0.861557
0.782229
0.695306
0.604496
0.51256
0.420404
0.329216
0.240756
0.158002
0.0858814
0.0314073
7.27009e-05
0.0172297
0.189027
0.430961
0.622825
0.749676
0.828859
0.877964
0.908965
0.929157
0.94281
0.952422
0.959438
0.964723
0.968796
0.971988
0.974515
0.976522
0.978114
0.979367
0.980341
0.981075
0.981607
0.981964
0.982166
0.982228
0.982163
0.981944
0.981531
0.980927
0.980134
0.979147
0.977967
0.976588
0.975016
0.973249
0.971296
0.969163
0.96686
0.964397
0.961786
0.959039
0.95617
0.95319
0.950109
0.946944
0.943699
0.940387
0.937013
0.933587
0.930114
0.926598
0.92304
0.919443
0.915814
0.912145
0.908443
0.904704
0.900925
0.897107
0.893247
0.889346
0.885394
0.881398
0.87735
0.873247
0.86909
0.864874
0.860595
0.856259
0.85185
0.847381
0.84284
0.838231
0.833545
0.828789
0.823961
0.819054
0.814073
0.809022
0.80389
0.798689
0.79341
0.788065
0.782654
0.777192
0.771684
0.766134
0.760547
0.754943
0.749328
0.743722
0.738147
0.732618
0.727168
0.721829
0.716636
0.711632
0.706868
0.702402
0.698292
0.694614
0.691453
0.688891
0.687033
0.685985
0.685853
0.686761
0.688831
0.692176
0.696914
0.703146
0.710965
0.720434
0.731598
0.744458
0.758999
0.775156
0.792847
0.811971
0.832406
0.853986
0.876408
0.899098
0.921094
0.940895
0.956468
0.96523
0.952109
0.903985
0.850989
0.791163
0.72298
0.645506
0.55836
0.461927
0.357904
0.250336
0.147041
0.0600945
0.00125359
0.0736166
0.359255
0.614661
0.772152
0.859096
0.906415
0.932964
0.948721
0.958779
0.965714
0.970835
0.974812
0.97799
0.980566
0.982664
0.984374
0.985756
0.986867
0.987747
0.988434
0.988956
0.989338
0.989602
0.989762
0.989829
0.989814
0.989708
0.989502
0.989198
0.988793
0.988282
0.987663
0.986929
0.98607
0.985083
0.983964
0.982704
0.981305
0.979764
0.978082
0.976263
0.974308
0.972228
0.970024
0.96771
0.965288
0.962772
0.960166
0.957483
0.954731
0.951913
0.949043
0.946123
0.943163
0.940167
0.93714
0.934083
0.931006
0.927906
0.924792
0.921657
0.918511
0.915354
0.912182
0.909
0.905809
0.902605
0.899393
0.896167
0.892928
0.889681
0.886419
0.883146
0.879858
0.876554
0.873238
0.869911
0.866568
0.863207
0.859836
0.856455
0.853068
0.849658
0.846243
0.842827
0.839413
0.836011
0.832626
0.829266
0.825942
0.822668
0.819462
0.816336
0.813319
0.810424
0.80769
0.805136
0.802803
0.800731
0.798961
0.797538
0.796515
0.795947
0.795898
0.796418
0.797584
0.799452
0.802088
0.80555
0.809895
0.815166
0.821399
0.82861
0.836796
0.845934
0.855981
0.866866
0.87849
0.890725
0.903405
0.916295
0.929071
0.941272
0.952286
0.961308
0.967286
0.968726
0.959369
0.927034
0.889761
0.846912
0.796028
0.734442
0.659419
0.568469
0.460366
0.336938
0.206337
0.0860637
0.00855963
0.191121
0.542488
0.761422
0.868522
0.918908
0.943692
0.957038
0.965146
0.970774
0.975123
0.978704
0.981718
0.984253
0.986363
0.988094
0.989499
0.990622
0.991505
0.992189
0.99271
0.993096
0.993373
0.99356
0.993676
0.99373
0.993731
0.993675
0.993553
0.993367
0.993117
0.9928
0.992418
0.991963
0.991434
0.990824
0.990126
0.989338
0.988452
0.987466
0.986372
0.985173
0.983862
0.982444
0.980916
0.979285
0.977554
0.975725
0.973806
0.971804
0.969725
0.967575
0.965364
0.963096
0.960783
0.958431
0.956044
0.953626
0.951189
0.948735
0.946268
0.943793
0.941318
0.938843
0.936365
0.933898
0.931436
0.928981
0.926538
0.924105
0.921683
0.919271
0.916874
0.914487
0.912114
0.909751
0.907404
0.905066
0.902736
0.900424
0.898122
0.895832
0.89356
0.891294
0.889042
0.886809
0.884595
0.882404
0.880247
0.878127
0.876053
0.874033
0.872083
0.870212
0.868433
0.866765
0.865229
0.863846
0.862637
0.861635
0.86086
0.860348
0.860134
0.860253
0.86074
0.861639
0.862982
0.864809
0.867157
0.870061
0.87354
0.877621
0.882309
0.887607
0.893497
0.899943
0.906902
0.914301
0.922047
0.930014
0.938047
0.945948
0.953453
0.960226
0.965844
0.969775
0.971301
0.9694
0.961782
0.939358
0.911141
0.878794
0.840147
0.792169
0.730797
0.650827
0.546903
0.415726
0.262115
0.107987
0.0331836
0.357961
0.705732
0.860857
0.922255
0.948007
0.960383
0.967499
0.972455
0.976488
0.980052
0.983222
0.985972
0.988291
0.990185
0.9917
0.992883
0.993784
0.994457
0.994943
0.995284
0.995515
0.995665
0.995754
0.9958
0.995816
0.995809
0.995779
0.995704
0.995588
0.995428
0.995225
0.994978
0.994682
0.994337
0.993936
0.993478
0.992956
0.992368
0.991709
0.990975
0.99016
0.989263
0.988283
0.987218
0.986066
0.98483
0.98351
0.982113
0.980637
0.979091
0.977478
0.975806
0.974078
0.972302
0.970487
0.968637
0.966757
0.964853
0.962934
0.961007
0.95907
0.957134
0.9552
0.953272
0.951356
0.94945
0.94756
0.945691
0.943835
0.942001
0.940186
0.938394
0.936624
0.934873
0.933146
0.931437
0.929753
0.928091
0.926447
0.924825
0.923229
0.921656
0.920102
0.918562
0.917047
0.915558
0.914097
0.912667
0.911274
0.909926
0.908629
0.907388
0.906214
0.905119
0.904114
0.903214
0.902435
0.901788
0.901293
0.900976
0.900849
0.900943
0.901278
0.901877
0.902768
0.903969
0.905511
0.907411
0.909684
0.91235
0.915408
0.918862
0.922702
0.926908
0.931443
0.936265
0.941305
0.946483
0.951689
0.956792
0.961624
0.965979
0.969598
0.972165
0.973276
0.972395
0.968789
0.96142
0.945774
0.923045
0.897082
0.866379
0.828363
0.778939
0.711426
0.616828
0.485081
0.313721
0.126723
0.0883603
0.539337
0.825987
0.917426
0.948295
0.961092
0.967893
0.97252
0.976372
0.979971
0.983404
0.986521
0.989179
0.99134
0.993034
0.99432
0.995258
0.995912
0.996336
0.996586
0.996708
0.996743
0.996725
0.996682
0.996632
0.996589
0.996555
0.996535
0.996496
0.996436
0.996355
0.996247
0.996111
0.995944
0.995743
0.9955
0.995216
0.994886
0.994504
0.99407
0.993579
0.993025
0.992411
0.99173
0.990985
0.990168
0.989283
0.988329
0.987311
0.986225
0.985078
0.983875
0.982616
0.981306
0.979953
0.978562
0.977135
0.975684
0.97421
0.972719
0.971217
0.969708
0.968199
0.96669
0.965192
0.963703
0.962225
0.960765
0.959321
0.957898
0.956495
0.955116
0.953756
0.952423
0.951114
0.949826
0.948561
0.94732
0.946105
0.944916
0.943744
0.942601
0.941485
0.940382
0.939302
0.938246
0.937212
0.936204
0.935227
0.934283
0.933374
0.932509
0.931694
0.930929
0.93023
0.929597
0.929049
0.928591
0.928233
0.927992
0.927878
0.92791
0.928102
0.928466
0.929024
0.929787
0.930773
0.931995
0.933464
0.935194
0.937183
0.939435
0.941946
0.944703
0.947681
0.950847
0.954162
0.957568
0.960991
0.96434
0.9675
0.970332
0.972666
0.974296
0.974963
0.974346
0.972035
0.967481
0.959983
0.948194
0.929655
0.907722
0.882017
0.850601
0.810146
0.753845
0.670638
0.543798
0.360413
0.143279
0.182459
0.699256
0.898275
0.944563
0.9599
0.967141
0.971732
0.975443
0.978971
0.98256
0.98609
0.989225
0.991782
0.993751
0.995201
0.996218
0.996876
0.99724
0.997374
0.997338
0.997188
0.996977
0.996749
0.996533
0.996355
0.996226
0.996153
0.996132
0.996123
0.99612
0.996117
0.996109
0.996089
0.996053
0.995993
0.995905
0.995782
0.995624
0.995424
0.995178
0.994886
0.994542
0.994145
0.993693
0.993184
0.992621
0.991999
0.991318
0.990581
0.989791
0.988945
0.988049
0.987106
0.986119
0.985092
0.984029
0.982936
0.981818
0.980678
0.979523
0.978359
0.977183
0.97601
0.974836
0.973666
0.972507
0.971358
0.970226
0.969106
0.968006
0.966926
0.965868
0.964827
0.963813
0.962817
0.961844
0.960895
0.959967
0.959064
0.958182
0.95732
0.956487
0.955672
0.95488
0.954102
0.953345
0.952609
0.951894
0.951205
0.950547
0.949914
0.949318
0.948762
0.948245
0.947776
0.947365
0.947013
0.946732
0.946525
0.946407
0.946382
0.946466
0.946661
0.946986
0.947449
0.948057
0.948825
0.949754
0.950859
0.952136
0.953594
0.955223
0.957015
0.958961
0.961036
0.963208
0.96544
0.96768
0.969861
0.971909
0.973718
0.975176
0.976134
0.976422
0.975822
0.974075
0.970849
0.965736
0.958236
0.947797
0.933082
0.913878
0.891414
0.864207
0.829869
0.782288
0.71011
0.591488
0.40155
0.158428
0.31742
0.812817
0.932891
0.956319
0.965374
0.970404
0.974088
0.977447
0.980946
0.984692
0.988391
0.991529
0.993923
0.995644
0.996813
0.997533
0.997875
0.997902
0.997686
0.997297
0.996808
0.996286
0.995786
0.995351
0.995007
0.99477
0.994643
0.994618
0.994638
0.994699
0.994787
0.994894
0.995007
0.995121
0.995223
0.995304
0.995359
0.99538
0.995362
0.995305
0.995201
0.995051
0.994851
0.994599
0.994295
0.99394
0.99353
0.993071
0.992561
0.992
0.991393
0.990739
0.990044
0.989309
0.988537
0.987734
0.9869
0.986044
0.985167
0.984275
0.983374
0.982464
0.981548
0.980634
0.979725
0.978821
0.977928
0.977045
0.976175
0.975322
0.974486
0.973667
0.972866
0.972082
0.97132
0.970578
0.969855
0.969153
0.968469
0.967807
0.967161
0.966539
0.965935
0.965352
0.964779
0.964223
0.963688
0.96317
0.962673
0.962194
0.961744
0.961316
0.960923
0.960559
0.960234
0.959951
0.959714
0.959525
0.959398
0.959331
0.959339
0.959419
0.959585
0.959841
0.960197
0.960655
0.961226
0.961909
0.962709
0.963627
0.964664
0.965806
0.967052
0.968382
0.969777
0.971205
0.972636
0.974017
0.975292
0.976389
0.977222
0.977691
0.977666
0.976997
0.975507
0.972975
0.969137
0.96367
0.956206
0.946341
0.933676
0.917202
0.896977
0.872511
0.842181
0.800753
0.737817
0.628629
0.436799
0.172721
0.47987
0.87633
0.945947
0.961859
0.96847
0.972479
0.975715
0.978951
0.982545
0.986527
0.990419
0.993496
0.995657
0.997088
0.99796
0.998359
0.998344
0.997971
0.997322
0.99649
0.995569
0.99465
0.993807
0.993094
0.992544
0.992173
0.991983
0.991949
0.992009
0.992147
0.992349
0.992599
0.992877
0.99317
0.993464
0.993747
0.994006
0.994234
0.994423
0.99457
0.99467
0.994719
0.994715
0.994658
0.99455
0.994391
0.994176
0.993911
0.993596
0.993235
0.992824
0.992372
0.991879
0.991347
0.990783
0.990189
0.989565
0.98892
0.988254
0.98757
0.986878
0.986176
0.985469
0.98476
0.984053
0.98335
0.982655
0.981969
0.981291
0.980628
0.979974
0.979339
0.978717
0.978114
0.977524
0.97695
0.976395
0.975854
0.975333
0.974825
0.974336
0.973864
0.973406
0.972968
0.972537
0.972124
0.971723
0.971336
0.970963
0.970611
0.970276
0.969961
0.969668
0.969404
0.969165
0.968958
0.968782
0.968647
0.968555
0.968505
0.96851
0.968568
0.968685
0.96887
0.969121
0.969445
0.969843
0.970316
0.970869
0.971496
0.972195
0.972956
0.973772
0.974627
0.975498
0.976358
0.977173
0.9779
0.978487
0.978868
0.978969
0.978693
0.977932
0.976556
0.974413
0.971312
0.967041
0.961337
0.953914
0.944448
0.932599
0.91801
0.90001
0.877441
0.849752
0.812428
0.75648
0.656329
0.466183
0.186556
0.611563
0.911192
0.954239
0.965195
0.97047
0.973913
0.976899
0.980114
0.983867
0.988134
0.99221
0.995154
0.997024
0.99815
0.998718
0.998774
0.998341
0.997476
0.99628
0.994882
0.993411
0.99199
0.990715
0.989659
0.988857
0.988332
0.988073
0.988034
0.988148
0.988392
0.988742
0.989173
0.98966
0.990179
0.99071
0.991236
0.99174
0.992212
0.992644
0.993024
0.993353
0.993625
0.993836
0.993988
0.99408
0.994114
0.994091
0.994013
0.993882
0.993701
0.993471
0.993197
0.992883
0.992528
0.992139
0.991717
0.991269
0.990798
0.990303
0.989794
0.989272
0.988738
0.988198
0.987655
0.98711
0.986567
0.986029
0.985494
0.98497
0.984451
0.983946
0.983452
0.982967
0.982497
0.982037
0.981595
0.981163
0.980745
0.98034
0.979946
0.979568
0.979205
0.978852
0.978515
0.978188
0.977869
0.97756
0.977263
0.976982
0.976708
0.976453
0.976211
0.975984
0.975778
0.975589
0.975426
0.975287
0.975174
0.975089
0.975041
0.975027
0.975051
0.975114
0.975225
0.975377
0.975581
0.97583
0.976128
0.976473
0.976861
0.977288
0.977743
0.978214
0.978689
0.979145
0.979554
0.979887
0.980099
0.980145
0.979968
0.979495
0.978645
0.977317
0.975399
0.972757
0.96923
0.964638
0.958766
0.951373
0.942187
0.930904
0.917166
0.90049
0.880083
0.854201
0.819585
0.768518
0.676023
0.490042
0.200231
0.72383
0.930664
0.95962
0.96784
0.971949
0.974923
0.977762
0.98101
0.984962
0.989537
0.993795
0.996523
0.998061
0.998893
0.999163
0.998836
0.997891
0.996399
0.994501
0.992378
0.990213
0.988167
0.986365
0.984896
0.983804
0.983105
0.982785
0.982754
0.982948
0.983338
0.983884
0.984552
0.985304
0.986107
0.986933
0.987759
0.988563
0.98933
0.990045
0.990701
0.99129
0.991813
0.992265
0.992643
0.992954
0.993195
0.99337
0.993481
0.993533
0.993528
0.99347
0.993363
0.993211
0.993017
0.992785
0.992519
0.992223
0.9919
0.991556
0.991191
0.990812
0.99042
0.990018
0.989609
0.989199
0.988786
0.988373
0.987963
0.987557
0.987158
0.986766
0.986381
0.986005
0.985638
0.985281
0.984934
0.984599
0.98427
0.983952
0.983646
0.983351
0.983066
0.982789
0.982525
0.982266
0.982019
0.981774
0.98154
0.981316
0.981098
0.980891
0.980696
0.980511
0.980338
0.980182
0.980041
0.979915
0.979809
0.979723
0.979657
0.979615
0.979599
0.97961
0.979647
0.979712
0.979806
0.979924
0.980072
0.980242
0.980429
0.980627
0.980828
0.981018
0.981181
0.981295
0.981339
0.981279
0.981081
0.980694
0.980066
0.979135
0.977824
0.976044
0.973697
0.970666
0.966807
0.96197
0.955969
0.948593
0.939605
0.928722
0.915592
0.899723
0.880327
0.855974
0.823681
0.775825
0.689219
0.508922
0.213981
0.806082
0.942564
0.963299
0.969732
0.973154
0.975698
0.978376
0.98168
0.985844
0.990748
0.995177
0.997617
0.998812
0.999382
0.999357
0.998574
0.996978
0.994676
0.991882
0.988846
0.985821
0.983015
0.980585
0.978636
0.977219
0.976344
0.975983
0.975982
0.976301
0.976891
0.977699
0.978673
0.979764
0.980925
0.982118
0.98331
0.984475
0.98559
0.986642
0.987618
0.988513
0.98932
0.99004
0.990672
0.99122
0.991683
0.99207
0.99238
0.992619
0.992793
0.992907
0.992965
0.992968
0.992926
0.992841
0.992718
0.992561
0.992372
0.992161
0.991922
0.991668
0.991397
0.991114
0.990822
0.99052
0.990217
0.989908
0.9896
0.989293
0.988989
0.988688
0.988392
0.988102
0.987816
0.987538
0.987265
0.987001
0.986743
0.986493
0.986252
0.986016
0.985786
0.985567
0.985353
0.985146
0.984943
0.984746
0.984554
0.984368
0.984186
0.984011
0.983845
0.983685
0.98353
0.983388
0.983255
0.983129
0.983019
0.982918
0.982828
0.982755
0.982697
0.982649
0.98262
0.982603
0.982598
0.982602
0.982617
0.982633
0.982648
0.982653
0.982638
0.982588
0.982492
0.982325
0.982063
0.981677
0.981134
0.980388
0.979391
0.978081
0.976396
0.97425
0.971556
0.968213
0.96409
0.959056
0.952947
0.94558
0.936732
0.926137
0.913446
0.898171
0.879534
0.856136
0.825127
0.779317
0.696759
0.523237
0.227997
0.847033
0.953799
0.965907
0.971087
0.974005
0.97635
0.978819
0.982146
0.986525
0.991771
0.996373
0.99846
0.999323
0.999684
0.999345
0.997991
0.995554
0.992212
0.988287
0.984129
0.980066
0.976359
0.973205
0.970722
0.968962
0.967925
0.967563
0.967634
0.968135
0.968997
0.970148
0.971514
0.973029
0.974631
0.976269
0.977902
0.979493
0.981018
0.982462
0.983805
0.985045
0.986176
0.987197
0.98811
0.988917
0.989624
0.990235
0.990757
0.991194
0.991553
0.991841
0.992063
0.992224
0.99233
0.992387
0.992397
0.992372
0.992309
0.992216
0.992095
0.99195
0.991788
0.991608
0.991416
0.991212
0.991001
0.990782
0.99056
0.990335
0.99011
0.989884
0.989659
0.989435
0.989217
0.989002
0.988787
0.988581
0.988374
0.988176
0.987979
0.98779
0.987603
0.987422
0.987246
0.987076
0.986905
0.986737
0.986574
0.986411
0.986253
0.986095
0.985943
0.985794
0.98565
0.985508
0.985372
0.98524
0.985113
0.984994
0.984879
0.984768
0.984664
0.984563
0.984466
0.98437
0.984275
0.984176
0.98407
0.983953
0.983816
0.983652
0.983448
0.983195
0.982873
0.982464
0.981943
0.981284
0.980449
0.9794
0.978091
0.976467
0.974467
0.972017
0.969041
0.965438
0.961098
0.955905
0.949708
0.942339
0.933589
0.923203
0.910836
0.896004
0.877939
0.85527
0.825245
0.780967
0.701382
0.532875
0.238353
0.87333
0.957814
0.967792
0.972035
0.974566
0.976754
0.979214
0.98242
0.987008
0.992601
0.997387
0.999075
0.99965
0.999855
0.999156
0.997062
0.993535
0.988883
0.983567
0.978059
0.972772
0.968033
0.964068
0.96101
0.958907
0.957743
0.957441
0.95765
0.958417
0.959648
0.961243
0.963103
0.965138
0.967273
0.969441
0.971591
0.973679
0.975677
0.977562
0.97932
0.980945
0.982433
0.983784
0.985002
0.986091
0.987058
0.987911
0.988653
0.989297
0.989849
0.990315
0.990705
0.991023
0.991277
0.991473
0.991617
0.991715
0.991771
0.991791
0.991779
0.991738
0.991673
0.991587
0.991483
0.991365
0.991234
0.991093
0.990944
0.990789
0.990628
0.990465
0.990301
0.990135
0.989968
0.989801
0.989636
0.98947
0.989307
0.989144
0.988984
0.988827
0.988673
0.988521
0.988371
0.988222
0.988073
0.987924
0.987778
0.987628
0.987482
0.987333
0.987186
0.987038
0.986894
0.986747
0.986602
0.986455
0.986309
0.986164
0.986015
0.985867
0.985717
0.98556
0.985399
0.98523
0.98505
0.984856
0.984641
0.984401
0.984128
0.983812
0.983446
0.983012
0.982493
0.981871
0.981126
0.980227
0.979142
0.977834
0.976259
0.974368
0.972103
0.969402
0.966184
0.962364
0.957849
0.952523
0.946248
0.93887
0.930188
0.919955
0.907832
0.893339
0.875713
0.853611
0.824343
0.781229
0.703842
0.539119
0.245654
0.891877
0.960858
0.969303
0.972647
0.974852
0.976922
0.979412
0.982648
0.98729
0.99323
0.998227
0.999498
0.999838
0.999941
0.998797
0.995737
0.990822
0.984553
0.977569
0.970481
0.963794
0.957894
0.953045
0.949391
0.946974
0.945748
0.945442
0.945888
0.94705
0.94879
0.950971
0.953461
0.956144
0.958923
0.961719
0.964467
0.967122
0.96965
0.972028
0.974242
0.976286
0.97816
0.979865
0.981408
0.982795
0.984035
0.985139
0.986115
0.986972
0.98772
0.988371
0.988929
0.989405
0.989806
0.99014
0.990413
0.990632
0.990803
0.990931
0.99102
0.991075
0.991101
0.991102
0.991078
0.991036
0.990979
0.990905
0.990821
0.990727
0.990624
0.990514
0.990398
0.990278
0.990154
0.990027
0.989899
0.989769
0.989637
0.989504
0.989372
0.989237
0.989102
0.988969
0.988837
0.988703
0.988566
0.988429
0.988289
0.988148
0.988003
0.987856
0.987708
0.987554
0.987401
0.987243
0.987082
0.986914
0.986744
0.986569
0.986386
0.986198
0.985996
0.985787
0.985564
0.985321
0.985061
0.984776
0.984461
0.98411
0.983713
0.983261
0.982746
0.98215
0.981456
0.980652
0.979707
0.978599
0.977295
0.975762
0.973957
0.971838
0.969346
0.966427
0.963009
0.959011
0.954346
0.948907
0.942567
0.935174
0.926543
0.916421
0.904483
0.890253
0.872972
0.851315
0.822644
0.780422
0.704675
0.542795
0.250524
0.905467
0.963039
0.970165
0.972972
0.974891
0.976844
0.979381
0.982812
0.987408
0.993656
0.998903
0.999763
0.999937
0.99998
0.998258
0.993952
0.987308
0.979093
0.970158
0.961261
0.953004
0.945831
0.940043
0.935797
0.933122
0.931935
0.931693
0.932508
0.934209
0.936607
0.939518
0.942773
0.946225
0.949754
0.953265
0.956687
0.959969
0.963072
0.96598
0.968682
0.971169
0.973447
0.97552
0.977399
0.979092
0.980613
0.981973
0.983184
0.984257
0.985204
0.986036
0.986764
0.987398
0.987945
0.988415
0.988817
0.989152
0.989433
0.989663
0.989848
0.989996
0.990105
0.990185
0.990239
0.990267
0.990274
0.990262
0.990234
0.990193
0.990138
0.990075
0.99
0.98992
0.989829
0.989737
0.989637
0.989532
0.989425
0.989315
0.9892
0.989083
0.988964
0.988842
0.988717
0.98859
0.98846
0.988326
0.988188
0.988046
0.987898
0.987746
0.987587
0.987425
0.987256
0.987082
0.986899
0.986709
0.986512
0.986302
0.986083
0.98585
0.985602
0.985336
0.985051
0.984741
0.984401
0.984032
0.983621
0.983166
0.982655
0.982079
0.981428
0.980685
0.979838
0.978864
0.977743
0.97645
0.974954
0.973226
0.971224
0.968906
0.966222
0.963117
0.959528
0.955376
0.950585
0.945052
0.938653
0.931246
0.922646
0.912613
0.900821
0.886798
0.869795
0.848501
0.820305
0.778787
0.704262
0.544494
0.253464
0.915633
0.964573
0.970615
0.973026
0.974673
0.976515
0.979099
0.982736
0.987517
0.993867
0.999417
0.999911
0.999981
0.999995
0.997519
0.991632
0.982885
0.972385
0.961224
0.950308
0.940325
0.931775
0.925004
0.920189
0.917347
0.916341
0.916399
0.917757
0.920178
0.923405
0.927202
0.931356
0.935685
0.940049
0.944341
0.948487
0.952428
0.956138
0.959591
0.962788
0.965725
0.968409
0.970852
0.973065
0.975063
0.976863
0.978475
0.979917
0.981202
0.982347
0.983358
0.984251
0.985037
0.985726
0.986327
0.986847
0.9873
0.987684
0.988015
0.98829
0.988523
0.988711
0.988865
0.988986
0.989079
0.989144
0.989188
0.98921
0.989215
0.989204
0.989179
0.989139
0.989091
0.98903
0.988962
0.988886
0.988802
0.988712
0.988615
0.988512
0.988408
0.988294
0.988177
0.988058
0.987932
0.987803
0.987665
0.987523
0.987374
0.987218
0.987054
0.986883
0.986703
0.986518
0.986321
0.986115
0.985898
0.985667
0.985424
0.985162
0.984885
0.984589
0.984266
0.98392
0.983544
0.983131
0.982677
0.982179
0.981624
0.981006
0.980317
0.979542
0.978666
0.977675
0.976552
0.975273
0.973817
0.972155
0.970253
0.968077
0.965586
0.962735
0.959474
0.955735
0.951458
0.94656
0.940945
0.934497
0.927078
0.918504
0.908541
0.896866
0.883015
0.86624
0.845244
0.817448
0.776484
0.702872
0.544662
0.254883
0.923319
0.96562
0.970759
0.972793
0.974201
0.975914
0.978546
0.98241
0.987565
0.993908
0.999774
0.999977
0.999995
0.999999
0.996553
0.988702
0.977456
0.964339
0.950701
0.937579
0.925726
0.915697
0.907899
0.90256
0.899693
0.898902
0.899495
0.901683
0.905117
0.909443
0.914345
0.919561
0.924884
0.930159
0.935277
0.940165
0.944774
0.94908
0.95307
0.956745
0.960113
0.963186
0.96598
0.968511
0.970796
0.97286
0.974712
0.976373
0.977858
0.979185
0.980368
0.981421
0.982349
0.983174
0.983899
0.984535
0.985092
0.985579
0.985998
0.986361
0.986669
0.986932
0.987154
0.987338
0.987486
0.987605
0.987695
0.987762
0.987808
0.987832
0.987839
0.98783
0.987808
0.987771
0.987722
0.987664
0.987594
0.987514
0.987426
0.987332
0.987231
0.987121
0.987004
0.98688
0.986751
0.986617
0.986471
0.986319
0.986158
0.98599
0.985811
0.985622
0.985424
0.985214
0.984993
0.984759
0.984509
0.984245
0.983962
0.98366
0.983337
0.98299
0.982614
0.982208
0.981762
0.981277
0.980746
0.980162
0.979516
0.978797
0.978001
0.97711
0.976114
0.974995
0.973738
0.972316
0.970714
0.968902
0.966848
0.964521
0.961883
0.958888
0.95549
0.951631
0.947247
0.942257
0.936577
0.930089
0.922661
0.914105
0.904204
0.892633
0.878927
0.862349
0.84161
0.81415
0.773644
0.700715
0.543639
0.255103
0.929143
0.966255
0.970604
0.972232
0.973465
0.975031
0.977695
0.981801
0.987362
0.993943
0.999969
0.999998
1
1
0.995327
0.98509
0.970943
0.954904
0.938575
0.923092
0.909236
0.89761
0.888723
0.882926
0.880236
0.879323
0.880864
0.88436
0.889266
0.895074
0.901372
0.907843
0.914272
0.92051
0.926463
0.932076
0.937313
0.942174
0.94665
0.950758
0.954513
0.957934
0.961039
0.963853
0.966394
0.96869
0.970758
0.972616
0.974283
0.975777
0.977112
0.978306
0.979368
0.980313
0.981151
0.981893
0.982547
0.983122
0.983626
0.984066
0.984446
0.984775
0.985055
0.985295
0.985494
0.985657
0.98579
0.985896
0.985975
0.986028
0.986064
0.986077
0.986075
0.986056
0.98602
0.985973
0.985913
0.98584
0.985755
0.985663
0.98556
0.985446
0.985325
0.985197
0.985058
0.984913
0.984756
0.984589
0.984411
0.984225
0.984025
0.983815
0.983595
0.983357
0.983108
0.982841
0.982559
0.982256
0.981935
0.98159
0.981219
0.980821
0.980389
0.97992
0.97941
0.978856
0.97825
0.977584
0.97685
0.976041
0.975143
0.974149
0.97304
0.971804
0.970423
0.968878
0.967147
0.965201
0.963013
0.960557
0.95779
0.954673
0.95116
0.9472
0.942726
0.937665
0.931933
0.925411
0.917974
0.909446
0.899599
0.888115
0.874545
0.858148
0.837642
0.810481
0.770362
0.69794
0.541676
0.254377
0.933496
0.966568
0.970221
0.97146
0.972453
0.973835
0.976516
0.980879
0.986901
0.993976
1
0.999999
0.999998
0.999999
0.993811
0.980735
0.963291
0.944072
0.924902
0.906954
0.890975
0.877581
0.867461
0.861274
0.859061
0.85895
0.861885
0.867108
0.87383
0.881365
0.8892
0.896987
0.904515
0.911662
0.918374
0.924616
0.930393
0.93571
0.940586
0.945044
0.949109
0.952808
0.956166
0.959208
0.96196
0.964449
0.966692
0.968711
0.97053
0.972166
0.97363
0.974944
0.976119
0.977169
0.978102
0.978935
0.979673
0.980327
0.980905
0.981411
0.981853
0.982236
0.98257
0.982857
0.983097
0.983302
0.983468
0.983604
0.98371
0.983788
0.983842
0.983871
0.983884
0.983875
0.98385
0.983807
0.983748
0.983679
0.983592
0.983496
0.983385
0.983267
0.983136
0.982995
0.982843
0.982682
0.982507
0.982322
0.982125
0.981917
0.981695
0.981458
0.981208
0.980943
0.98066
0.98036
0.98004
0.979701
0.979337
0.978945
0.978529
0.978075
0.977588
0.977063
0.976489
0.975866
0.975188
0.974441
0.973628
0.97273
0.97174
0.970648
0.969436
0.968095
0.966604
0.964946
0.963098
0.961037
0.958737
0.956166
0.95329
0.950071
0.946462
0.942417
0.937872
0.932753
0.92698
0.920441
0.913004
0.904501
0.894706
0.883317
0.869875
0.853651
0.833368
0.806488
0.766701
0.694668
0.538963
0.252906
0.936665
0.966614
0.969633
0.970456
0.971149
0.972308
0.974978
0.979607
0.986152
0.99386
1
1
0.999998
0.999997
0.991986
0.97558
0.954474
0.931897
0.909834
0.889399
0.871188
0.855756
0.844057
0.837528
0.834885
0.836629
0.842376
0.850557
0.859882
0.869503
0.878937
0.887943
0.896393
0.904252
0.91152
0.91821
0.92435
0.929976
0.935117
0.939806
0.944079
0.947963
0.95149
0.954687
0.957589
0.960212
0.962581
0.964724
0.966655
0.968395
0.96996
0.971367
0.97263
0.973762
0.974777
0.975678
0.976483
0.977199
0.977835
0.978394
0.978885
0.979315
0.979689
0.980012
0.980289
0.980522
0.980714
0.980871
0.980998
0.981092
0.981161
0.981201
0.981219
0.981214
0.981192
0.981149
0.981088
0.981013
0.980921
0.980815
0.980695
0.980561
0.980416
0.980257
0.980088
0.979908
0.979712
0.979505
0.979284
0.979047
0.978798
0.978533
0.978252
0.977953
0.977636
0.977297
0.976941
0.976557
0.976148
0.975712
0.975243
0.974741
0.974196
0.97361
0.972974
0.972287
0.971536
0.970717
0.969825
0.968845
0.967771
0.966587
0.965284
0.963848
0.962259
0.960501
0.958552
0.956392
0.953994
0.951327
0.948358
0.945058
0.941374
0.93726
0.932659
0.927498
0.921697
0.915145
0.907717
0.899248
0.889518
0.878223
0.86491
0.848862
0.828801
0.802196
0.762719
0.690982
0.535642
0.250842
0.938827
0.96643
0.968849
0.969146
0.969401
0.970424
0.973048
0.977946
0.985077
0.993566
0.999997
0.999997
0.999998
0.999996
0.989831
0.969573
0.944492
0.91851
0.893658
0.870874
0.850396
0.832531
0.818411
0.811256
0.808899
0.814819
0.825546
0.837842
0.85
0.861424
0.871994
0.881725
0.890659
0.898848
0.906347
0.913208
0.91948
0.925212
0.930444
0.935213
0.939561
0.943523
0.947122
0.950392
0.953359
0.956055
0.958495
0.960703
0.9627
0.964504
0.966132
0.967599
0.96892
0.970107
0.971173
0.972127
0.972979
0.973738
0.974413
0.975011
0.975537
0.975997
0.976401
0.976749
0.977045
0.977299
0.977508
0.977678
0.977815
0.977916
0.977989
0.978033
0.97805
0.978044
0.978017
0.977969
0.977898
0.977811
0.977707
0.977586
0.97745
0.977297
0.977132
0.976953
0.976761
0.976555
0.976333
0.976098
0.975849
0.975582
0.9753
0.975002
0.974685
0.974351
0.973996
0.97362
0.973218
0.972793
0.972338
0.971852
0.971334
0.970776
0.970178
0.969535
0.968837
0.968084
0.967266
0.966377
0.96541
0.964355
0.963202
0.961937
0.960551
0.959029
0.957353
0.955508
0.953473
0.951228
0.948744
0.946002
0.942961
0.93959
0.935846
0.931682
0.92704
0.921851
0.91603
0.909483
0.902077
0.893653
0.883995
0.872808
0.859642
0.843776
0.823954
0.797629
0.758453
0.686943
0.531817
0.248296
0.940084
0.966056
0.967909
0.967587
0.967255
0.968174
0.970691
0.975845
0.983624
0.993084
1
1
0.999998
1
0.987323
0.96266
0.933383
0.904155
0.876889
0.852212
0.829738
0.809131
0.790763
0.776564
0.782388
0.802164
0.820057
0.833906
0.846637
0.858392
0.869271
0.878926
0.887729
0.895757
0.903095
0.909809
0.915948
0.921561
0.926694
0.931382
0.935667
0.939573
0.94314
0.946382
0.949337
0.952023
0.954467
0.956684
0.958695
0.960519
0.962163
0.963653
0.964997
0.966208
0.967298
0.968275
0.969149
0.969932
0.970626
0.971244
0.971787
0.972264
0.972678
0.973037
0.973345
0.973602
0.973817
0.97399
0.974126
0.974226
0.974295
0.974332
0.974341
0.974325
0.974286
0.97422
0.974135
0.974031
0.973907
0.973765