/*--------------------------------*- C++ -*----------------------------------*\
  =========                 |
  \\      /  F ield         | OpenFOAM: The Open Source CFD Toolbox
   \\    /   O peration     | Website:  https://openfoam.org
    \\  /    A nd           | Version:  12
     \\/     M anipulation  |
\*---------------------------------------------------------------------------*/
FoamFile
{
    format      ascii;
    class       volScalarField;
    location    "465";
    object      T;
}
// * * * * * * * * * * * * * * * * * * * * * * * * * * * * * * * * * * * * * //

dimensions      [];

internalField   nonuniform List<scalar> 
4480
(
2.7101e-06
0.000148857
0.0179363
0.109136
0.240664
0.368602
0.477487
0.565326
0.634682
0.689069
0.731723
0.765293
0.791835
0.812924
0.829747
0.843203
0.853971
0.862573
0.869401
0.874762
0.878896
0.881988
0.884183
0.885595
0.886314
0.886414
0.885954
0.885192
0.884421
0.883635
0.882834
0.882013
0.881165
0.880287
0.879374
0.878424
0.877431
0.876391
0.875296
0.874145
0.872934
0.871651
0.870293
0.868857
0.867334
0.865716
0.863996
0.862172
0.86023
0.85816
0.855963
0.853629
0.851141
0.848497
0.845685
0.842694
0.839521
0.836157
0.832582
0.828798
0.824786
0.820542
0.816053
0.811314
0.806305
0.801032
0.795468
0.789621
0.783462
0.777002
0.770213
0.763095
0.755635
0.747825
0.739653
0.731109
0.722184
0.712864
0.70314
0.693001
0.682432
0.671421
0.659954
0.648081
0.635804
0.623112
0.609996
0.596447
0.582454
0.568014
0.553124
0.53779
0.522026
0.505859
0.489333
0.472509
0.45547
0.438324
0.421203
0.404264
0.387684
0.371661
0.3564
0.342131
0.329073
0.317449
0.307482
0.299378
0.293337
0.289547
0.288187
0.289428
0.29343
0.300354
0.310346
0.323548
0.34007
0.359992
0.383353
0.410216
0.440973
0.4768
0.519717
0.574613
0.660611
0.787234
0.877019
0.945723
0.933932
0.838829
0.749137
0.619859
0.508049
0.420785
0.343402
0.272105
0.205388
0.142563
0.0849088
0.0342473
1.12087e-06
0.0042759
0.0993935
0.298209
0.487892
0.63188
0.732933
0.802201
0.849683
0.882603
0.905809
0.922476
0.934682
0.943781
0.950664
0.955944
0.960028
0.963203
0.965673
0.967585
0.969048
0.970136
0.970912
0.971418
0.971692
0.971756
0.971632
0.971211
0.970408
0.969261
0.967806
0.96608
0.964121
0.96196
0.959624
0.957146
0.954549
0.951856
0.949083
0.946248
0.943368
0.940453
0.937507
0.934542
0.931564
0.928571
0.925569
0.922555
0.919527
0.916485
0.913423
0.910343
0.907233
0.904089
0.900909
0.897681
0.894407
0.891074
0.887677
0.884214
0.880668
0.877048
0.873333
0.869525
0.865619
0.861613
0.857492
0.853254
0.8489
0.844427
0.839824
0.835091
0.830223
0.825221
0.820073
0.814786
0.809352
0.803764
0.798036
0.792153
0.786113
0.779929
0.773584
0.767103
0.760501
0.753771
0.74692
0.739961
0.732892
0.725732
0.718491
0.711181
0.703822
0.696439
0.689059
0.681708
0.674434
0.667269
0.660272
0.653504
0.647037
0.640947
0.635331
0.630284
0.625933
0.622395
0.619817
0.618338
0.618121
0.619321
0.622102
0.62661
0.632994
0.641379
0.65186
0.66451
0.679356
0.696404
0.71563
0.73704
0.760735
0.786969
0.816061
0.848251
0.883272
0.918289
0.947626
0.967379
0.952959
0.89718
0.838256
0.772412
0.701461
0.626611
0.547542
0.463949
0.375714
0.283527
0.190082
0.102027
0.000209107
0.0331639
0.249524
0.500795
0.682923
0.796853
0.865228
0.906345
0.931643
0.947751
0.958418
0.96579
0.971082
0.975012
0.978005
0.980329
0.982154
0.983595
0.984734
0.985626
0.986319
0.986839
0.987218
0.987472
0.987616
0.987662
0.987619
0.987466
0.987166
0.98672
0.986129
0.985386
0.984492
0.983438
0.982229
0.980862
0.979345
0.97768
0.975876
0.97394
0.971884
0.969716
0.96745
0.965093
0.962654
0.96015
0.957583
0.954964
0.952299
0.949595
0.946861
0.944097
0.941305
0.938489
0.935656
0.932798
0.929924
0.927029
0.924111
0.921174
0.918213
0.91523
0.912218
0.909182
0.906117
0.903019
0.899891
0.896729
0.893528
0.890295
0.887015
0.8837
0.880341
0.876941
0.87349
0.869998
0.866463
0.862876
0.859244
0.855571
0.851845
0.84808
0.844264
0.840413
0.836521
0.832603
0.828665
0.824708
0.820736
0.816768
0.812808
0.808872
0.804979
0.801139
0.79738
0.793727
0.790207
0.786851
0.7837
0.780795
0.778179
0.775904
0.774034
0.772621
0.77174
0.771462
0.771854
0.773
0.774981
0.777866
0.781731
0.78664
0.792652
0.799804
0.808122
0.817602
0.828233
0.839966
0.852745
0.8665
0.881146
0.896566
0.912545
0.92867
0.944244
0.958179
0.96899
0.974775
0.964316
0.928682
0.890295
0.847164
0.797569
0.739927
0.67262
0.593998
0.502602
0.397914
0.281978
0.161782
0.00308173
0.120565
0.43505
0.679214
0.818877
0.892201
0.930605
0.951475
0.963518
0.971015
0.976073
0.979744
0.98256
0.98479
0.986588
0.988045
0.989231
0.990187
0.990954
0.991561
0.992033
0.992392
0.992654
0.992836
0.992946
0.992992
0.992982
0.992909
0.992766
0.992553
0.992269
0.991907
0.991466
0.990938
0.990315
0.989594
0.988771
0.987835
0.98679
0.985631
0.984359
0.982977
0.981485
0.979891
0.978197
0.976414
0.974544
0.972598
0.970581
0.968503
0.96637
0.964187
0.961965
0.959705
0.957417
0.955106
0.952774
0.950423
0.948062
0.945689
0.943311
0.940923
0.938535
0.936145
0.933751
0.931355
0.928963
0.926566
0.924173
0.921775
0.919376
0.916979
0.914578
0.912176
0.90977
0.907359
0.904947
0.902536
0.900118
0.897693
0.895268
0.892844
0.890423
0.88799
0.88556
0.883135
0.880718
0.878319
0.875939
0.873583
0.871261
0.868984
0.866765
0.864611
0.862547
0.86058
0.85874
0.857042
0.855512
0.854183
0.853084
0.852245
0.851707
0.851505
0.851688
0.852287
0.853357
0.854936
0.857069
0.859793
0.863147
0.867157
0.871846
0.877223
0.883279
0.889996
0.897341
0.905259
0.913678
0.922501
0.93161
0.940831
0.949928
0.958565
0.966296
0.972532
0.976499
0.977088
0.96961
0.945368
0.918224
0.887647
0.851748
0.808231
0.754229
0.686134
0.599766
0.491004
0.357974
0.205304
0.018047
0.2734
0.619675
0.812967
0.901588
0.941374
0.960223
0.970058
0.97588
0.979847
0.982873
0.985349
0.987425
0.98917
0.990621
0.99181
0.992775
0.993547
0.994151
0.994618
0.994973
0.995234
0.995421
0.995547
0.995624
0.995659
0.99566
0.995621
0.995538
0.995411
0.995239
0.995021
0.994757
0.994441
0.994072
0.993644
0.99315
0.992588
0.991952
0.991239
0.990442
0.989563
0.988596
0.987544
0.986406
0.985184
0.983883
0.982504
0.981052
0.979534
0.977955
0.97632
0.974636
0.972909
0.971147
0.969356
0.967539
0.9657
0.96385
0.961989
0.960121
0.958251
0.956385
0.954525
0.952665
0.95082
0.948983
0.947157
0.945346
0.943547
0.941763
0.93999
0.938235
0.936493
0.934767
0.933054
0.931359
0.929675
0.928001
0.926347
0.924704
0.923076
0.921465
0.919863
0.918277
0.916708
0.915157
0.913626
0.912125
0.910655
0.909223
0.907834
0.906501
0.90523
0.904029
0.902914
0.901898
0.900999
0.90023
0.899615
0.899169
0.898916
0.898882
0.899093
0.89957
0.900347
0.901445
0.902889
0.904707
0.906924
0.909546
0.912596
0.916071
0.919974
0.924289
0.928986
0.934034
0.939376
0.944945
0.950648
0.956369
0.961965
0.967243
0.97196
0.975803
0.978383
0.979168
0.977395
0.971351
0.954337
0.933467
0.910109
0.882842
0.849588
0.807221
0.750976
0.674129
0.567774
0.422927
0.237479
0.0606411
0.46047
0.771261
0.897615
0.944846
0.963838
0.972681
0.977655
0.981076
0.983846
0.98629
0.988464
0.990351
0.991945
0.993247
0.994287
0.995099
0.995714
0.996172
0.996499
0.996725
0.996875
0.99697
0.997025
0.99705
0.997058
0.997051
0.997031
0.996979
0.996901
0.996793
0.996655
0.996488
0.996287
0.996051
0.995776
0.995461
0.995099
0.994688
0.994226
0.993708
0.993128
0.992485
0.991779
0.991007
0.990167
0.989262
0.98829
0.987257
0.986163
0.985012
0.98381
0.98256
0.981267
0.979935
0.978574
0.977186
0.975776
0.974347
0.972908
0.971466
0.970016
0.968571
0.967129
0.965694
0.964272
0.96286
0.961464
0.960088
0.958725
0.957381
0.956056
0.954751
0.953468
0.952202
0.950957
0.949729
0.948524
0.947339
0.94617
0.945021
0.943894
0.942787
0.941699
0.940622
0.939565
0.938531
0.93752
0.936534
0.935576
0.934656
0.933773
0.932935
0.932146
0.931417
0.930756
0.930173
0.929681
0.929285
0.929001
0.928847
0.928831
0.928975
0.929295
0.929803
0.930522
0.931462
0.932646
0.934084
0.935784
0.937764
0.940017
0.942545
0.945341
0.948389
0.951659
0.95512
0.958721
0.962403
0.966084
0.969671
0.973039
0.976037
0.978478
0.980128
0.980688
0.97976
0.976796
0.971023
0.959076
0.942054
0.922995
0.900989
0.874483
0.840843
0.795196
0.729457
0.630235
0.479272
0.26273
0.141966
0.64044
0.87358
0.942265
0.964394
0.973309
0.977978
0.981138
0.983771
0.986233
0.988585
0.990724
0.992552
0.994038
0.995203
0.996086
0.996727
0.997168
0.997448
0.997606
0.997673
0.99768
0.997651
0.997609
0.997563
0.997526
0.997499
0.997485
0.997459
0.99742
0.997368
0.997298
0.99721
0.997101
0.996968
0.996807
0.996617
0.996394
0.996135
0.995839
0.9955
0.995116
0.994687
0.994209
0.993682
0.993101
0.992467
0.99178
0.991044
0.990256
0.989419
0.988539
0.987615
0.986651
0.985654
0.984627
0.983572
0.982498
0.981408
0.980304
0.979193
0.978077
0.976961
0.975848
0.974744
0.973649
0.972563
0.971493
0.970437
0.9694
0.968379
0.967379
0.966395
0.965434
0.964493
0.963571
0.962667
0.961783
0.960922
0.960082
0.959256
0.958455
0.957676
0.956906
0.956156
0.955425
0.954712
0.954019
0.95335
0.952707
0.95209
0.951506
0.950961
0.950452
0.949993
0.949582
0.949234
0.948951
0.94874
0.948616
0.948582
0.948654
0.948841
0.949151
0.949599
0.950193
0.950945
0.951864
0.952955
0.954231
0.955686
0.957324
0.95914
0.961124
0.963257
0.965513
0.967863
0.970266
0.972666
0.974996
0.977175
0.979096
0.980638
0.98165
0.981938
0.981265
0.979324
0.975704
0.969886
0.960872
0.946897
0.930609
0.911877
0.889585
0.861837
0.824345
0.769041
0.679524
0.527714
0.283748
0.261716
0.782964
0.929803
0.962093
0.972565
0.977482
0.980602
0.983131
0.985543
0.988001
0.990425
0.99258
0.99434
0.995695
0.996693
0.997389
0.997832
0.998066
0.998136
0.998083
0.99795
0.997774
0.997589
0.997416
0.997274
0.997173
0.997116
0.9971
0.997096
0.997098
0.997103
0.997105
0.997101
0.997087
0.997057
0.997008
0.996934
0.996836
0.99671
0.996549
0.996356
0.996126
0.995857
0.995548
0.995197
0.994806
0.994371
0.993892
0.993369
0.992807
0.992202
0.991558
0.990878
0.990165
0.98942
0.988647
0.987851
0.987035
0.986203
0.98536
0.984509
0.983649
0.982792
0.981935
0.98108
0.980236
0.9794
0.978578
0.977766
0.976969
0.976189
0.975428
0.97468
0.973954
0.973242
0.972549
0.971875
0.971218
0.970582
0.969962
0.969358
0.968777
0.96821
0.967662
0.967124
0.966603
0.966098
0.965608
0.965139
0.964693
0.964265
0.963866
0.963496
0.963154
0.962847
0.962583
0.962361
0.962191
0.962074
0.962022
0.962034
0.962126
0.962295
0.962557
0.962918
0.963378
0.963953
0.964638
0.965447
0.966375
0.967429
0.968597
0.969876
0.971259
0.972725
0.974251
0.975811
0.977364
0.978862
0.980252
0.981453
0.982386
0.98294
0.982989
0.982371
0.980892
0.978304
0.974303
0.968519
0.960552
0.94943
0.935082
0.918532
0.898905
0.874934
0.843094
0.79629
0.717004
0.568435
0.302119
0.412215
0.873261
0.954429
0.97017
0.976284
0.979695
0.982203
0.984494
0.986891
0.989461
0.992004
0.994163
0.995812
0.996998
0.997801
0.998288
0.998505
0.998494
0.998306
0.99799
0.997601
0.997192
0.996801
0.996461
0.996193
0.99601
0.995911
0.995892
0.995909
0.995959
0.996032
0.99612
0.996214
0.996311
0.996401
0.996477
0.996535
0.996568
0.996574
0.996552
0.996496
0.996408
0.996283
0.996121
0.995921
0.995683
0.995404
0.99509
0.994737
0.994347
0.993921
0.99346
0.992969
0.992446
0.991895
0.991321
0.990722
0.990107
0.989475
0.988832
0.988181
0.987524
0.986862
0.986202
0.985546
0.984893
0.984249
0.983613
0.982987
0.982376
0.981777
0.981191
0.98062
0.980061
0.97952
0.978995
0.978484
0.97799
0.977511
0.977047
0.976596
0.976165
0.975747
0.975344
0.974949
0.974568
0.974202
0.973849
0.973512
0.973187
0.972885
0.972597
0.972337
0.972096
0.971884
0.971702
0.971554
0.971438
0.971368
0.97134
0.971365
0.971441
0.971577
0.971777
0.972046
0.972386
0.972806
0.973302
0.973878
0.974534
0.975272
0.97608
0.976955
0.977885
0.978853
0.979837
0.980815
0.981746
0.982589
0.983293
0.983793
0.984016
0.983863
0.983225
0.981971
0.979933
0.976914
0.972674
0.966942
0.959428
0.949856
0.937516
0.92253
0.904691
0.883168
0.85502
0.814457
0.744434
0.601682
0.318822
0.573918
0.916798
0.963196
0.973903
0.978379
0.981103
0.983309
0.985521
0.987984
0.990718
0.993397
0.995516
0.997006
0.997992
0.998589
0.998848
0.998805
0.998496
0.997982
0.997332
0.996615
0.995903
0.99525
0.994698
0.994273
0.993986
0.993839
0.993814
0.993861
0.993969
0.994128
0.994324
0.994543
0.994775
0.995009
0.995236
0.995446
0.995633
0.995794
0.995923
0.996019
0.996077
0.996096
0.996077
0.996021
0.995928
0.995793
0.995622
0.995413
0.995171
0.99489
0.994579
0.994238
0.993867
0.993472
0.993055
0.992614
0.992157
0.991685
0.991197
0.990704
0.990204
0.989699
0.989192
0.988687
0.988185
0.987688
0.987199
0.986716
0.986244
0.985778
0.985328
0.984887
0.984461
0.984044
0.98364
0.983251
0.982871
0.982508
0.982153
0.981813
0.981487
0.98117
0.980869
0.980573
0.98029
0.980016
0.979753
0.979499
0.979262
0.979036
0.978824
0.978628
0.978454
0.978297
0.978163
0.97805
0.977967
0.977914
0.97789
0.977905
0.977956
0.978049
0.978189
0.978375
0.97861
0.978896
0.979232
0.979624
0.980064
0.98055
0.981077
0.981638
0.98222
0.982808
0.98338
0.983912
0.98437
0.984718
0.984906
0.984879
0.984566
0.983886
0.98274
0.981018
0.978574
0.975252
0.970852
0.96517
0.957972
0.949025
0.938092
0.924724
0.908175
0.888311
0.862551
0.826255
0.763736
0.627936
0.334485
0.694279
0.940104
0.968769
0.976159
0.979735
0.982077
0.984115
0.986314
0.988888
0.991822
0.994629
0.996658
0.997947
0.998724
0.999107
0.999118
0.998765
0.998086
0.997156
0.996073
0.994936
0.993838
0.992853
0.992038
0.991419
0.991014
0.990815
0.990785
0.990874
0.991062
0.991334
0.991669
0.992047
0.992451
0.992865
0.993276
0.993672
0.994043
0.994387
0.994692
0.994958
0.995184
0.995364
0.9955
0.995592
0.995641
0.995648
0.995614
0.995541
0.995431
0.995285
0.995106
0.994897
0.994658
0.994392
0.994102
0.993792
0.993465
0.993119
0.992762
0.992395
0.992019
0.991639
0.991256
0.990871
0.990487
0.990107
0.989727
0.989358
0.988991
0.988635
0.988287
0.987946
0.987616
0.987292
0.986983
0.986681
0.98639
0.986108
0.985834
0.985571
0.985322
0.985077
0.984845
0.984622
0.984404
0.984192
0.983989
0.983799
0.983613
0.983441
0.983277
0.983124
0.982987
0.982859
0.982753
0.982662
0.982589
0.982535
0.982507
0.982503
0.982524
0.982572
0.982653
0.982761
0.982905
0.983078
0.983283
0.98352
0.983783
0.98407
0.984374
0.984682
0.984989
0.985276
0.985521
0.985704
0.985791
0.985748
0.985534
0.985095
0.984368
0.98328
0.981746
0.979665
0.976918
0.973368
0.968858
0.963212
0.956238
0.947726
0.937437
0.925049
0.910053
0.891378
0.867222
0.833722
0.776736
0.647908
0.349537
0.791394
0.953056
0.972395
0.977951
0.980739
0.982764
0.984702
0.986926
0.989638
0.992786
0.99572
0.997601
0.998662
0.999236
0.999408
0.999136
0.998396
0.99724
0.995773
0.994134
0.992463
0.990883
0.989493
0.98836
0.987517
0.986978
0.986732
0.986708
0.986859
0.98716
0.987582
0.988098
0.98868
0.989301
0.989941
0.990582
0.991206
0.991804
0.992362
0.992876
0.993339
0.993753
0.994116
0.994421
0.994677
0.994881
0.995035
0.995142
0.995204
0.995225
0.995205
0.995149
0.99506
0.994939
0.994789
0.994614
0.994417
0.994198
0.993964
0.993714
0.993453
0.993182
0.992903
0.992618
0.992333
0.992043
0.991755
0.991468
0.991184
0.990905
0.99063
0.990361
0.990098
0.989842
0.989593
0.989351
0.989119
0.98889
0.988669
0.988457
0.988253
0.988057
0.987866
0.987684
0.987506
0.987337
0.987168
0.987008
0.986855
0.986706
0.986565
0.986432
0.986306
0.986188
0.986082
0.985986
0.985901
0.985829
0.985771
0.985726
0.985697
0.985686
0.985693
0.985717
0.985759
0.985819
0.985894
0.985988
0.986095
0.986211
0.98633
0.986448
0.986553
0.986633
0.986671
0.986652
0.986552
0.986343
0.985988
0.985448
0.984678
0.983619
0.982204
0.98036
0.978
0.975014
0.971292
0.966698
0.961076
0.954262
0.946061
0.936233
0.924448
0.910193
0.892592
0.869938
0.838248
0.784999
0.662446
0.364288
0.857715
0.960986
0.974879
0.979233
0.981558
0.983291
0.98512
0.987384
0.990242
0.993618
0.996672
0.998355
0.99918
0.999574
0.999531
0.998917
0.997681
0.995904
0.993748
0.991406
0.989072
0.986907
0.985032
0.983529
0.982435
0.981761
0.981482
0.981482
0.981728
0.982184
0.982809
0.983561
0.984403
0.9853
0.986222
0.987143
0.988045
0.988909
0.989725
0.990483
0.99118
0.991811
0.992375
0.992873
0.993308
0.993678
0.993992
0.994248
0.994449
0.994604
0.994712
0.994779
0.994804
0.994795
0.994754
0.994684
0.994589
0.994469
0.994333
0.994175
0.994006
0.993823
0.993631
0.993432
0.993226
0.993018
0.992805
0.992592
0.99238
0.992169
0.991961
0.991756
0.991555
0.991356
0.991164
0.990975
0.990791
0.990613
0.99044
0.990274
0.99011
0.989951
0.9898
0.989653
0.98951
0.98937
0.989234
0.989101
0.988973
0.988847
0.988727
0.988612
0.988501
0.988393
0.988295
0.988202
0.988113
0.988035
0.987963
0.987898
0.987844
0.987799
0.98776
0.987734
0.987714
0.987701
0.98769
0.987687
0.98768
0.98767
0.987649
0.987609
0.987539
0.987431
0.987266
0.987026
0.986688
0.986229
0.985615
0.984808
0.983762
0.982433
0.980754
0.978659
0.976073
0.972898
0.969037
0.96437
0.958765
0.952066
0.944091
0.9346
0.923263
0.90957
0.892653
0.870861
0.8404
0.789423
0.672289
0.378968
0.889
0.968487
0.976641
0.980151
0.982134
0.983734
0.985423
0.987703
0.99071
0.994321
0.997497
0.998937
0.999533
0.999782
0.999508
0.998459
0.996578
0.994001
0.990974
0.987767
0.984632
0.981771
0.979337
0.977421
0.976063
0.975263
0.974984
0.975039
0.975426
0.976092
0.976981
0.978036
0.979205
0.980442
0.981707
0.982969
0.984198
0.985376
0.986494
0.987533
0.988495
0.989373
0.990167
0.990879
0.991511
0.992066
0.992549
0.992964
0.993315
0.993608
0.993846
0.994035
0.994178
0.994279
0.994343
0.994371
0.994373
0.994346
0.994297
0.994227
0.994137
0.994033
0.993918
0.993792
0.993656
0.993515
0.993368
0.993218
0.993065
0.992911
0.992757
0.992603
0.992449
0.992299
0.992151
0.992002
0.99186
0.991717
0.991581
0.991444
0.991314
0.991183
0.991059
0.990936
0.990819
0.9907
0.990583
0.99047
0.990356
0.990245
0.990134
0.990027
0.989922
0.98982
0.989719
0.989621
0.989525
0.989433
0.989346
0.98926
0.989176
0.989097
0.989017
0.988939
0.98886
0.98878
0.988694
0.9886
0.988496
0.988375
0.98823
0.988052
0.987834
0.987562
0.98722
0.986791
0.986257
0.985586
0.984751
0.983717
0.982444
0.980885
0.978984
0.976685
0.973911
0.97058
0.966607
0.961881
0.956283
0.949668
0.94186
0.93262
0.92162
0.908355
0.891969
0.870856
0.841344
0.792071
0.678828
0.389693
0.908819
0.971189
0.977917
0.980794
0.982516
0.984007
0.985692
0.987889
0.99104
0.994892
0.998196
0.999361
0.999758
0.9999
0.999355
0.997739
0.99502
0.991433
0.987333
0.983084
0.979003
0.975345
0.972284
0.969923
0.968299
0.967401
0.967168
0.967331
0.967923
0.968874
0.970107
0.971543
0.973114
0.974763
0.976437
0.978097
0.979709
0.981253
0.98271
0.984068
0.985325
0.986477
0.987524
0.98847
0.989317
0.99007
0.990737
0.991319
0.991827
0.992265
0.992638
0.992952
0.993212
0.993424
0.993592
0.99372
0.993813
0.993874
0.993908
0.993917
0.993904
0.993873
0.993825
0.993764
0.993691
0.993608
0.993517
0.993419
0.993318
0.993209
0.9931
0.99299
0.992877
0.992764
0.99265
0.992536
0.992422
0.99231
0.992197
0.992086
0.991977
0.991871
0.991765
0.99166
0.991556
0.991451
0.991346
0.991243
0.991137
0.991034
0.990927
0.990822
0.990715
0.990612
0.990504
0.990399
0.990291
0.990182
0.990075
0.989962
0.98985
0.989735
0.989612
0.989486
0.989353
0.989209
0.989053
0.988879
0.988685
0.988463
0.988207
0.98791
0.98756
0.987144
0.986647
0.986055
0.985344
0.984491
0.983468
0.98224
0.980772
0.97902
0.976936
0.974461
0.971529
0.968072
0.964005
0.959227
0.953632
0.947077
0.939392
0.930345
0.919608
0.906677
0.89071
0.870132
0.841366
0.793387
0.683033
0.397243
0.922658
0.973238
0.978938
0.981207
0.982707
0.984121
0.985826
0.988044
0.991233
0.995325
0.998775
0.999654
0.999888
0.999959
0.999076
0.996717
0.992928
0.988094
0.982707
0.977236
0.972073
0.967518
0.963772
0.960949
0.959083
0.958136
0.9579
0.958246
0.959144
0.960489
0.962174
0.964097
0.96617
0.968316
0.970475
0.972597
0.974647
0.9766
0.978436
0.980147
0.981727
0.983175
0.984494
0.985689
0.986764
0.987727
0.988585
0.989346
0.990016
0.990602
0.991115
0.991556
0.991935
0.992257
0.992528
0.992753
0.992936
0.993082
0.993196
0.993281
0.993338
0.993373
0.99339
0.993387
0.993369
0.993341
0.993299
0.993248
0.99319
0.993125
0.993054
0.992977
0.992897
0.992814
0.992728
0.992642
0.992553
0.992461
0.992369
0.992278
0.992183
0.992089
0.991996
0.991904
0.991808
0.991711
0.991614
0.991513
0.991412
0.991307
0.991201
0.991093
0.990981
0.990868
0.990752
0.990633
0.990508
0.99038
0.990248
0.99011
0.989967
0.989812
0.989652
0.989479
0.989289
0.989086
0.988862
0.988615
0.988338
0.988025
0.987669
0.987263
0.986794
0.986249
0.985619
0.984881
0.984017
0.983004
0.981816
0.980419
0.978784
0.976866
0.974623
0.972002
0.968941
0.965375
0.961229
0.956409
0.95081
0.944302
0.936711
0.927813
0.917284
0.904621
0.888992
0.868847
0.840675
0.793695
0.68549
0.402328
0.932722
0.974708
0.979521
0.981427
0.982733
0.984065
0.985804
0.988156
0.991314
0.995619
0.999242
0.999837
0.999956
0.999986
0.998659
0.995341
0.990219
0.983883
0.976989
0.97012
0.963742
0.9582
0.953727
0.950445
0.948378
0.947462
0.947276
0.947907
0.949222
0.951076
0.953325
0.955841
0.958508
0.961234
0.963946
0.966589
0.969125
0.971521
0.973766
0.975854
0.977775
0.979535
0.981138
0.982591
0.983901
0.985079
0.986133
0.987074
0.987909
0.988647
0.989296
0.989867
0.990366
0.990798
0.991171
0.991493
0.991762
0.991991
0.992181
0.992336
0.992463
0.99256
0.992634
0.992689
0.992723
0.992741
0.992744
0.992734
0.992715
0.992684
0.992647
0.992599
0.992548
0.992488
0.992427
0.99236
0.992288
0.992214
0.992138
0.992059
0.991976
0.991892
0.991806
0.991717
0.991625
0.991532
0.991435
0.991335
0.991232
0.991124
0.991012
0.990895
0.990775
0.99065
0.990521
0.990384
0.990241
0.990092
0.989934
0.989768
0.98959
0.989401
0.989197
0.988977
0.988738
0.988475
0.988189
0.98787
0.987516
0.987119
0.986671
0.986165
0.985588
0.984931
0.984176
0.983308
0.982309
0.981154
0.979822
0.978282
0.976501
0.974442
0.972063
0.969316
0.966141
0.962486
0.958274
0.953415
0.947813
0.941339
0.933826
0.925049
0.914687
0.902244
0.886899
0.867111
0.83943
0.79323
0.686604
0.405488
0.940209
0.975741
0.979824
0.98146
0.982581
0.983838
0.985608
0.988103
0.991389
0.995764
0.999598
0.999939
0.999987
0.999996
0.99809
0.993553
0.98681
0.978709
0.970093
0.961663
0.953947
0.947337
0.942101
0.938377
0.93618
0.935403
0.935449
0.9365
0.938374
0.940869
0.943805
0.947017
0.950363
0.953736
0.957052
0.960256
0.963301
0.966167
0.968833
0.971302
0.973571
0.975645
0.977533
0.979243
0.980788
0.982181
0.983429
0.984546
0.985543
0.986433
0.987219
0.987915
0.988529
0.989069
0.989541
0.989951
0.99031
0.990616
0.990881
0.991103
0.991294
0.991449
0.991578
0.991682
0.991765
0.991825
0.991869
0.991896
0.99191
0.99191
0.991901
0.991879
0.991851
0.991812
0.991768
0.991717
0.991661
0.991598
0.99153
0.991458
0.991384
0.991303
0.991219
0.991133
0.991042
0.990948
0.990847
0.990743
0.990633
0.990518
0.990396
0.990269
0.990134
0.989996
0.989849
0.989693
0.98953
0.989355
0.989171
0.988972
0.98876
0.988535
0.988288
0.988023
0.987734
0.987417
0.987067
0.986684
0.986256
0.985779
0.985248
0.98465
0.983975
0.98321
0.982345
0.981362
0.980242
0.978966
0.977506
0.975837
0.973929
0.971747
0.969253
0.966395
0.963131
0.959399
0.955129
0.950241
0.944638
0.938194
0.930744
0.922067
0.911847
0.899591
0.884484
0.86501
0.837737
0.792154
0.686685
0.407148
0.945845
0.976446
0.979918
0.981298
0.982256
0.983424
0.985227
0.987878
0.991421
0.995792
0.999844
0.999984
0.999997
0.999999
0.997346
0.991295
0.982623
0.972501
0.96197
0.951829
0.942664
0.934904
0.928868
0.924736
0.922517
0.921907
0.922368
0.924062
0.926721
0.930068
0.933861
0.937896
0.942012
0.946092
0.950048
0.953826
0.957388
0.960715
0.963797
0.966636
0.969238
0.971612
0.973771
0.975726
0.977492
0.979088
0.980521
0.981807
0.982956
0.983985
0.984903
0.985722
0.986444
0.987088
0.987654
0.988152
0.988589
0.988973
0.989304
0.989593
0.989839
0.99005
0.990229
0.99038
0.990502
0.990604
0.990681
0.990741
0.990784
0.990811
0.990824
0.990824
0.990816
0.990794
0.990763
0.990725
0.990677
0.990622
0.99056
0.990493
0.990421
0.990341
0.990256
0.990166
0.990071
0.989973
0.989864
0.989752
0.989632
0.989507
0.989374
0.989232
0.989084
0.988925
0.988758
0.988582
0.988393
0.988192
0.987978
0.987748
0.987502
0.987237
0.98695
0.98664
0.986299
0.985927
0.98552
0.985072
0.984577
0.984025
0.983415
0.982731
0.981966
0.981108
0.980144
0.979054
0.977827
0.976439
0.974867
0.973088
0.97107
0.968782
0.966186
0.963242
0.9599
0.956101
0.951789
0.946877
0.941277
0.934855
0.927465
0.918881
0.908785
0.896692
0.881799
0.862599
0.835685
0.790599
0.685963
0.407631
0.950105
0.976871
0.979809
0.980911
0.98175
0.982818
0.984642
0.987459
0.991281
0.995816
0.999978
0.999999
1
1
0.996401
0.988511
0.9776
0.96522
0.952605
0.940632
0.929909
0.920906
0.914021
0.909529
0.907446
0.906741
0.907938
0.910647
0.914447
0.918945
0.923821
0.92883
0.933804
0.938629
0.943233
0.947573
0.951621
0.955379
0.958837
0.962012
0.964913
0.967557
0.969956
0.97213
0.974093
0.975868
0.977467
0.978904
0.980194
0.98135
0.982385
0.983311
0.984136
0.984871
0.985523
0.986101
0.986612
0.987063
0.987458
0.987804
0.988105
0.988365
0.988589
0.988781
0.988941
0.989074
0.989183
0.989272
0.98934
0.989388
0.989422
0.989438
0.989443
0.989434
0.989412
0.989382
0.989341
0.98929
0.989229
0.989164
0.989089
0.989005
0.988916
0.988822
0.988719
0.988611
0.988495
0.98837
0.988237
0.988097
0.987946
0.987788
0.987622
0.987442
0.987254
0.987052
0.986838
0.986608
0.986364
0.986102
0.985819
0.985516
0.985187
0.984829
0.984439
0.984016
0.983553
0.983044
0.982483
0.981865
0.981178
0.980417
0.979569
0.978624
0.977568
0.976387
0.975065
0.973579
0.971907
0.970032
0.967919
0.965541
0.96286
0.959843
0.956435
0.952588
0.948242
0.943311
0.937714
0.931325
0.923989
0.915484
0.905506
0.89357
0.878875
0.859927
0.833336
0.788656
0.684609
0.407184
0.953281
0.977078
0.979543
0.98038
0.981055
0.981997
0.983832
0.986824
0.990962
0.995838
1
0.999999
0.999998
0.999999
0.995232
0.985155
0.971698
0.956859
0.94204
0.928151
0.915773
0.90539
0.89754
0.892741
0.891028
0.890944
0.893223
0.897273
0.902484
0.908324
0.914393
0.920424
0.926252
0.931782
0.936976
0.941804
0.946272
0.950383
0.954152
0.957597
0.960739
0.963597
0.966192
0.968543
0.970669
0.972593
0.974327
0.975888
0.977295
0.978561
0.979694
0.980712
0.981623
0.982438
0.983163
0.98381
0.984386
0.984895
0.985347
0.985743
0.986091
0.986392
0.986655
0.986883
0.987073
0.987238
0.987372
0.987483
0.98757
0.987635
0.987682
0.98771
0.987726
0.987724
0.987709
0.987681
0.98764
0.987592
0.987529
0.98746
0.987378
0.987291
0.987194
0.987089
0.986976
0.986855
0.986724
0.986584
0.986436
0.98628
0.986112
0.985932
0.985744
0.985543
0.985328
0.985101
0.984857
0.9846
0.984323
0.984025
0.983708
0.983363
0.982992
0.982592
0.982154
0.981679
0.981163
0.980593
0.979973
0.979287
0.978532
0.977699
0.976775
0.975752
0.974614
0.97335
0.971941
0.970369
0.968615
0.966654
0.964461
0.962007
0.959256
0.956176
0.952719
0.948832
0.944462
0.939528
0.933941
0.927584
0.9203
0.911882
0.902018
0.890233
0.875734
0.85703
0.830732
0.786403
0.682749
0.406
0.955594
0.977105
0.979139
0.979692
0.98016
0.98095
0.982775
0.985949
0.990446
0.995758
1
1
0.999998
0.999997
0.993827
0.981181
0.964896
0.947456
0.930389
0.914563
0.900442
0.888463
0.879375
0.874304
0.872255
0.873613
0.878077
0.884428
0.891664
0.899126
0.906438
0.913418
0.919963
0.926047
0.931672
0.936849
0.941598
0.94595
0.949924
0.95355
0.956853
0.959855
0.962581
0.965051
0.967294
0.969322
0.971152
0.97281
0.974303
0.975649
0.97686
0.977949
0.978928
0.979805
0.980593
0.981292
0.981918
0.982475
0.98297
0.983407
0.98379
0.984127
0.98442
0.984675
0.984894
0.985079
0.985232
0.985358
0.985461
0.985538
0.985596
0.985632
0.98565
0.985651
0.985638
0.98561
0.985566
0.985513
0.985446
0.985368
0.985279
0.985179
0.985071
0.984952
0.984825
0.98469
0.984542
0.984385
0.984218
0.984039
0.983851
0.98365
0.983436
0.983209
0.982969
0.982711
0.982441
0.982149
0.981837
0.981506
0.981149
0.980767
0.980352
0.979907
0.979423
0.9789
0.978328
0.977704
0.977025
0.976279
0.975461
0.97456
0.973567
0.972474
0.971265
0.969926
0.968441
0.966796
0.96497
0.962939
0.960676
0.958162
0.955357
0.952228
0.948732
0.94482
0.940435
0.935501
0.929932
0.923614
0.916395
0.908064
0.898316
0.886686
0.872384
0.853925
0.827914
0.783894
0.680474
0.404221
0.957177
0.976977
0.978603
0.978795
0.978962
0.979658
0.981452
0.984806
0.989705
0.995554
0.999997
0.999997
0.999998
0.999996
0.992168
0.976551
0.957193
0.937113
0.917876
0.900212
0.884313
0.870425
0.859438
0.853872
0.852043
0.856649
0.864992
0.874548
0.883991
0.892857
0.901055
0.908598
0.915521
0.921863
0.927669
0.932979
0.937832
0.942266
0.946312
0.95
0.953361
0.956426
0.959208
0.961734
0.964027
0.966112
0.967999
0.969706
0.97125
0.972645
0.973905
0.97504
0.976063
0.976983
0.977809
0.978549
0.979211
0.9798
0.980325
0.980791
0.981201
0.98156
0.981877
0.98215
0.982382
0.982583
0.982749
0.982884
0.982995
0.983076
0.983137
0.983175
0.983192
0.983192
0.983174
0.983142
0.98309
0.983027
0.982951
0.98286
0.98276
0.982645
0.982521
0.982386
0.982241
0.982086
0.981917
0.981739
0.98155
0.981348
0.981133
0.980907
0.980666
0.980412
0.980143
0.979857
0.979552
0.979228
0.978882
0.978513
0.978119
0.977695
0.97724
0.976751
0.97622
0.975649
0.975026
0.97435
0.973615
0.972814
0.971938
0.970976
0.969923
0.968766
0.967491
0.966088
0.96454
0.962831
0.96094
0.958853
0.956539
0.953972
0.951125
0.947961
0.944439
0.940512
0.93612
0.931201
0.925662
0.919393
0.912244
0.904013
0.894395
0.882926
0.868835
0.85063
0.824909
0.781164
0.677855
0.40195
0.958106
0.976718
0.977959
0.977728
0.977492
0.978117
0.979836
0.983362
0.988703
0.995221
1
1
0.999998
1
0.990236
0.971221
0.948619
0.926016
0.904892
0.885739
0.868265
0.852221
0.837899
0.826826
0.831363
0.846786
0.860719
0.871487
0.881377
0.890504
0.898943
0.906428
0.913251
0.919469
0.925152
0.93035
0.935101
0.939443
0.943414
0.94704
0.950354
0.953373
0.956133
0.958638
0.960923
0.962999
0.964889
0.966604
0.968159
0.96957
0.970842
0.971995
0.973035
0.973974
0.974818
0.975576
0.976253
0.976862
0.977401
0.977882
0.978305
0.978676
0.979
0.979281
0.979523
0.979725
0.979895
0.980033
0.980141
0.980223
0.98028
0.980312
0.980323
0.980314
0.980288
0.98024
0.980178
0.980101
0.980009
0.979903
0.979785
0.97965
0.979507
0.97935