/*--------------------------------*- C++ -*----------------------------------*\
  =========                 |
  \\      /  F ield         | OpenFOAM: The Open Source CFD Toolbox
   \\    /   O peration     | Website:  https://openfoam.org
    \\  /    A nd           | Version:  13
     \\/     M anipulation  |
\*---------------------------------------------------------------------------*/
FoamFile
{
    format      ascii;
    class       volScalarField;
    location    "44.831886";
    object      T;
}
// * * * * * * * * * * * * * * * * * * * * * * * * * * * * * * * * * * * * * //

dimensions      [0 0 0 1 0 0 0];

internalField   nonuniform List<scalar> 
5712
(
641.631
641.156
640.366
639.636
638.448
637.709
635.77
635.173
636.285
635.588
638.386
637.681
639.911
639.242
641.052
640.545
637.877
636.94
636.614
635.317
634.625
633.42
633.47
631.939
643.328
646.12
642.818
645.425
642.138
644.808
641.344
643.862
639.424
640.884
638.091
639.936
643.19
641.627
635.043
632.727
633.785
632.061
632.088
630.142
630.592
629.116
637.838
635.421
636.452
634.624
640.063
637.718
649.321
651.214
647.986
649.949
647.994
650.373
646.426
648.607
646.059
649.282
643.663
646.643
641.818
644.76
639.726
642.711
637.203
636.793
635.191
635.002
632.891
632.358
631.301
630.768
638.943
639.534
641.322
641.448
633.489
633.515
631.95
632.279
629.863
629.427
628.51
628.279
637.001
637.948
635.28
636.665
642.63
646.226
644.042
648.102
645.209
648.904
646.052
650.278
640.507
643.996
642.392
646.367
638.635
642.067
641.093
645.002
653.846
658.02
654.533
658.684
652.611
656.489
653.865
657.822
650.516
653.487
652.726
655.979
640.07
634.96
644.71
648.213
652.011
635.671
641.072
646.602
650.348
654.467
634.365
639.177
643.847
648.279
652.626
661.877
663.739
664.021
665.68
659.93
662.073
662.708
664.501
656.546
658.95
660.46
662.599
636.841
638.761
642.747
645.379
648.195
650.936
652.556
655.275
658.364
661.103
635.229
636.781
640.621
643.369
645.693
648.836
650.757
654.162
657.164
660.762
638.154
641.249
635.935
638.679
632.863
633.734
630.886
631.363
641.309
644.977
643.48
647.374
634.048
636.804
632.832
635.462
629.292
629.743
628.146
628.474
639.33
643.071
638.101
641.757
647.445
651.91
655.067
660.504
649.192
653.875
656.228
661.56
645.831
650.157
653.952
659.303
644.304
648.673
652.344
657.41
664.262
665.039
666.569
664.661
664.938
666.328
663.014
663.991
665.614
663.721
664.078
665.578
660.44
661.748
663.568
662.294
662.87
664.557
641.122
643.828
646.725
648.179
650.541
653.1
653.527
655.553
657.804
657.376
659.063
661.215
661.174
661.999
663.979
638.963
641.993
645.266
647.024
650.195
653.442
652.542
655.331
658.237
657.011
659.082
661.644
661.138
662.223
664.509
628.864
627.891
628.004
626.754
631.46
630.258
630.469
628.983
628.319
626.31
628.081
626.211
627.748
625.953
627.329
625.647
625.959
626.781
625.438
626.404
625.591
624.913
625.779
624.643
627.793
626.523
625.398
624.32
624.645
623.617
624.51
623.454
624.293
622.527
624.629
622.97
624.038
622.218
624.121
622.441
623.797
621.809
623.338
621.525
622.986
621.392
622.083
620.773
626.591
625.736
625.48
624.52
629.319
628.573
628.009
627.2
623.719
622.578
624.689
623.644
624.391
623.466
623.305
622.535
626.769
626.016
625.566
624.976
622.764
621.649
621.774
620.824
622.249
620.687
621.308
620.383
623.031
621.353
622.238
621.162
621.472
620.093
620.492
619.709
620.611
619.456
619.772
619.124
624.357
625.213
622.711
623.605
624.331
625.238
622.586
623.515
624.29
625.108
622.384
623.219
627.399
630.632
625.381
623.803
622.134
631.281
628.079
626.19
624.638
622.871
630.028
626.883
624.64
623.139
621.933
626.701
628.754
625.111
627.103
626.585
628.543
624.869
626.781
626.283
628.135
624.401
626.185
632.128
633.714
628.734
630.346
626.802
628.456
625.335
627.019
623.672
625.356
630.549
631.472
627.325
628.255
625.147
626.261
623.755
625.122
622.704
624.401
625.533
625.843
624.286
624.248
628.465
628.679
626.965
626.729
622.57
622.973
623.642
624.334
623.327
623.019
622.404
622.001
625.798
625.303
624.759
624.149
621.708
621.874
620.883
620.965
621.518
622.385
621.05
622.42
622.498
623.616
621.815
623.374
620.717
621.367
620.389
621.582
620.04
620.602
619.795
620.832
631.551
634.337
636.973
630.537
633.683
636.327
631.169
633.991
636.688
630.077
633.245
636.005
630.603
633.373
636.113
629.33
632.649
635.595
635.864
638.556
641.474
632.543
635.331
638.31
630.689
633.596
636.625
629.384
632.279
635.207
628.516
632.009
635.221
633.178
636.09
639.395
630.046
633.014
636.329
628.312
631.455
634.867
627.534
630.842
634.283
627.709
631.373
634.905
621.835
623.113
626.382
632.37
622.357
623.724
627.105
633.152
621.608
622.933
626.212
632.258
621.942
623.394
626.805
632.869
621.306
622.701
625.845
631.711
621.178
622.737
626.09
632.082
621.27
622.997
626.588
632.733
620.932
622.854
626.591
632.781
620.599
622.252
625.527
631.464
620.694
622.458
625.458
630.799
621.098
622.588
625.552
631.063
621.253
622.848
625.638
630.67
620.194
622.008
625.538
631.692
620.207
622.12
625.294
630.758
619.778
621.751
625.404
631.527
619.781
621.826
625.092
630.532
621.927
623.07
626.045
631.679
622.661
623.636
626.18
631.102
621.862
623.04
625.974
631.574
622.628
623.646
626.176
631.054
621.769
623.015
625.856
631.294
622.472
623.589
626.125
630.945
621.74
623.078
625.778
630.898
622.325
623.55
626.056
630.741
621.809
623.248
625.827
630.516
623.795
624.622
626.917
630.421
625.07
625.805
628.147
631.422
623.653
624.545
626.857
630.354
624.922
625.732
628.103
631.391
623.394
624.409
626.776
630.297
624.663
625.608
628.038
631.333
623.02
624.202
626.62
630.158
624.31
625.427
627.93
631.252
622.534
623.931
626.432
630.006
623.896
625.219
627.813
631.172
621.603
623.405
626.178
629.887
622.831
624.606
627.429
630.909
622.061
623.67
626.312
629.957
623.362
624.915
627.623
631.036
621.191
623.158
626.055
629.832
622.342
624.314
627.252
630.771
620.796
622.902
625.883
629.691
621.893
624.031
627.066
630.622
641.519
648.915
655.231
660.38
664.346
641.973
649.289
655.589
660.733
664.697
641.466
648.888
655.214
660.366
664.335
641.892
649.237
655.548
660.698
664.664
641.365
648.843
655.185
660.343
664.314
641.565
648.954
655.284
660.442
664.413
641.746
649.144
655.483
660.646
664.62
641.639
649.066
655.424
660.598
664.577
641.301
648.807
655.162
660.327
664.301
641.67
649.345
655.725
660.892
664.863
641.383
648.938
655.295
660.457
664.428
641.786
649.469
655.843
661.006
664.975
641.295
648.807
655.172
660.344
664.32
641.711
649.404
655.792
660.965
664.938
641.184
648.733
655.117
660.299
664.28
641.685
649.412
655.817
660.998
664.975
641.569
649.087
655.42
660.569
664.535
642.104
649.734
656.076
661.22
665.181
641.557
649.099
655.439
660.591
664.557
642.091
649.735
656.082
661.228
665.19
641.566
649.154
655.507
660.663
664.631
642.096
649.766
656.12
661.27
665.233
641.725
649.388
655.754
660.913
664.881
642.187
649.879
656.241
661.395
665.359
642.046
649.737
656.106
661.264
665.23
672.998
674.21
672.466
673.702
671.495
672.867
670.267
671.869
669.05
670.9
667.143
669.288
668.122
670.216
666.172
668.242
665.156
667.041
686.407
701.167
713.658
723.462
730.247
686.192
701.056
713.69
723.558
730.456
686.168
701.04
713.578
723.403
730.195
685.978
700.966
713.611
723.538
730.419
685.687
700.77
713.399
723.268
730.078
685.514
700.706
713.44
723.409
730.309
685.038
700.382
713.136
723.07
729.908
684.921
700.353
713.202
723.23
730.156
684.283
699.89
712.793
722.809
729.683
684.282
699.936
712.909
723.005
729.96
682.649
698.674
711.875
722.073
729.025
682.814
698.849
712.09
722.339
729.349
683.469
699.299
712.357
722.466
729.382
683.589
699.438
712.546
722.717
729.699
681.824
698.031
711.37
721.656
728.648
681.934
698.162
711.545
721.886
728.934
680.977
697.362
710.84
721.219
728.255
680.967
697.424
710.946
721.389
728.501
625.952
627.798
629.384
627.271
629.962
629.68
629.598
629.215
630.214
629.688
632.684
632.065
633.971
633.273
632.112
631.529
631.381
630.981
631.233
630.922
627.343
626.82
632.195
634.372
635.065
635.271
633.277
632.461
634.988
631.963
637.152
640.436
632.485
633.452
635.981
633.149
634.292
634.476
630.347
630.096
631.438
630.939
630.32
629.777
630.366
631.169
633.99
633.452
632.429
631.891
628.222
627.463
628.702
628.084
628.898
629.127
630.554
632.433
630.521
624.002
622.291
621.563
621.646
622.564
624.358
622.942
622.317
622.548
623.734
630.55
629.783
629.706
630.364
631.791
632.786
632.086
632.075
632.784
634.234
633.456
632.726
632.683
633.364
634.798
633.689
632.99
632.98
633.688
635.136
631.65
630.902
630.843
631.514
632.946
628.804
626.588
625.423
625.183
625.836
631.09
628.697
627.462
627.215
627.977
629.381
627.72
626.836
626.878
627.966
633.55
631.251
630.109
629.965
630.908
636.913
634.556
633.396
633.242
634.188
630.452
629.264
628.786
629.137
630.399
631.076
629.573
628.824
628.975
630.129
633.678
632.231
631.526
631.71
632.88
631.258
630.212
629.862
630.307
631.618
632.279
631.107
630.642
631.002
632.266
632.62
631.609
631.29
631.756
633.077
627.009
625.124
624.17
624.073
624.863
627.824
626.433
625.774
625.98
627.158
629.512
628.433
628.053
628.476
629.778
629.102
628.121
627.834
628.328
629.667
628.333
627.2
626.772
627.157
628.437
627.904
626.888
626.57
627.041
628.369
628.623
627.749
627.569
628.146
629.532
629.438
628.573
628.398
628.98
630.366
632.275
631.422
631.254
631.839
633.222
631.787
630.992
630.885
631.517
632.928
630.627
629.679
629.421
629.937
631.286
630.146
629.264
629.072
629.639
631.016
624.984
623.227
622.435
622.467
623.329
625.159
623.821
623.244
623.512
624.722
626.033
624.475
623.709
623.793
624.787
626.038
624.874
624.427
624.797
626.07
626.967
625.9
625.535
625.969
627.278
626.904
625.569
624.954
625.19
626.384
628.795
627.901
627.7
628.262
629.639
630.761
629.961
629.851
630.482
631.893
628.71
627.759
627.502
628.019
629.372
627.184
628.182
627.269
628.376
624.738
625.896
624.689
625.715
627.366
627.502
628.434
628.226
624.774
624.838
625.845
625.535
629.771
632.304
630.663
633.094
629.787
632.082
630.839
633.088
630.894
629.959
630.364
629.748
631.741
632.679
629.749
630.874
629.258
630.502
627.245
628.433
626.556
627.715
632.167
633.379
631.439
632.837
634.006
635.478
634.62
636.621
635.298
637.2
634.464
636.848
635.349
637.457
634.062
637.309
634.663
637.537
635.892
638.838
637.593
640.603
628.298
628.951
628.81
629.558
625.063
625.274
625.611
625.799
631.88
633.77
631.425
633.134
629.632
630.293
630.692
631.204
626.411
626.471
627.386
627.289
632.715
634.536
633.871
635.53
635.069
638.667
638.14
642.239
634.774
638.659
637.598
641.925
635.872
639.312
638.886
642.867
637.102
640.495
639.924
643.834
634.816
636.027
637.051
638.964
634.638
635.629
637.395
639.227
634.3
634.83
638.008
639.52
628.169
624.824
631.448
634.966
639.439
624.714
627.893
631.169
634.88
640.231
624.996
628.592
632.738
637.276
641.966
637.981
638.834
643.971
645.707
637.07
637.926
643.61
645.343
635.719
636.419
643.171
644.916
624.772
625.217
628.167
628.708
631.718
632.271
636.009
636.731
643.735
645.604
624.998
625.453
628.958
630.101
633.472
634.94
638.719
640.493
645.819
648.096
629.892
631.895
630.431
632.485
625.38
625.53
625.84
625.871
635.535
638.51
634.865
637.681
630.891
633.258
631.795
634.325
626.388
626.554
627.189
627.443
636.008
639.355
637.013
640.566
641.654
645.533
649.468
654.407
640.632
644.389
648.054
652.669
642.432
646.455
650.662
655.757
643.155
647.449
651.297
656.301
639.12
639.839
644.488
644.547
638.244
639.043
644.259
644.24
636.944
638.115
644.027
644.062
626.155
627.834
629.731
631.312
633.165
634.529
637.447
638.724
644.441
644.362
626.383
628.187
631.655
633.31
636.3
637.522
640.993
641.496
645.83
645.382
620.69
620.617
621.729
621.292
622.502
622.433
623.597
623.141
619.414
618.51
620.391
619.453
619.448
618.607
620.508
619.603
620.339
619.433
620.21
619.531
618.801
619.659
622.262
623.419
624.101
625.234
621.601
622.917
621.208
622.377
620.882
622.084
617.972
617.637
618.889
618.502
617.984
617.563
618.949
618.444
618.055
617.473
618.784
618.093
619.885
619.072
620.946
619.927
620.295
620.22
620.787
620.567
622.354
622.315
622.882
622.754
619.394
619.095
618.947
618.817
621.504
621.085
622.355
621.734
623.638
623.353
624.544
624.08
620.071
619.54
620.876
620.115
618.404
617.736
618.26
617.914
618.002
617.475
618.035
617.761
619.042
618.22
618.64
618.205
619.794
618.817
619.147
618.616
617.568
617.717
617.296
617.549
617.649
617.813
617.306
617.584
617.831
617.966
617.364
617.613
620.104
622.125
618.786
617.915
617.5
622.141
620.203
618.909
618.042
617.675
622.085
620.076
618.729
617.985
617.763
618.362
619.492
618.319
619.533
618.359
619.414
618.26
619.424
618.38
619.316
618.173
619.239
622.142
622.573
620.205
620.746
619.024
619.708
618.284
619.085
618.104
619.072
621.959
622.112
619.986
620.22
618.755
619.205
618.15
618.855
618.131
619.094
619.923
619.812
620.326
620.007
621.986
621.695
622.47
621.922
619.059
619.15
618.729
618.984
620.968
620.491
621.619
621.173
623.164
622.464
623.887
623.224
619.599
619.584
620.181
620.213
618.446
618.973
618.512
619.454
618.196
618.854
618.273
619.278
618.853
619.326
618.857
619.813
619.395
619.906
619.288
620.262
620.877
622.179
621.303
622.837
620.705
622.102
621.163
622.787
620.548
622.088
620.947
622.828
623.508
625.196
621.781
623.51
620.804
622.549
620.293
622.087
620.788
623.001
622.857
624.801
621.108
623.143
620.327
622.459
620.254
622.479
620.991
623.496
618.446
620.829
624.825
631.318
619.244
621.621
625.664
632.172
618.394
620.765
624.745
631.285
619.16
621.512
625.517
632
618.354
620.707
624.49
630.82
618.837
621.15
624.992
631.339
619.698
621.929
625.849
632.228
620.361
622.465
626.321
632.594
618.572
620.872
624.562
630.79
618.961
621.276
624.612
630.171
618.444
620.79
624.309
630.22
618.877
621.236
624.515
629.878
618.901
621.126
624.913
631.242
619.144
621.392
624.762
630.344
619.331
621.445
625.187
631.37
619.421
621.579
624.91
630.388
618.182
620.56
624.335
630.517
618.54
620.906
624.32
629.81
618.231
620.604
624.322
630.465
618.618
620.985
624.369
629.809
618.352
620.72
624.3
630.265
618.716
621.087
624.43
629.789
618.592
620.959
624.336
629.939
618.854
621.231
624.487
629.684
618.928
621.307
624.495
629.598
619.389
621.746
624.964
628.939
620.506
622.863
626.132
629.832
619.385
621.748
624.957
628.916
620.506
622.873
626.141
629.842
619.402
621.777
624.99
628.955
620.527
622.91
626.183
629.867
619.426
621.817
624.997
628.948
620.551
622.957
626.223
629.899
619.482
621.889
625.021
628.937
620.608
623.042
626.297
629.96
619.838
622.209
625.321
629.196
620.851
623.274
626.486
630.147
619.627
622.03
625.161
629.061
620.682
623.128
626.365
630.024
620.116
622.426
625.523
629.389
621.134
623.499
626.672
630.298
620.436
622.657
625.704
629.541
621.494
623.761
626.873
630.465
640.894
648.531
654.99
660.217
664.219
641.375
648.92
655.356
660.576
664.574
640.895
648.538
654.994
660.218
664.219
641.37
648.914
655.345
660.561
664.557
640.861
648.535
654.992
660.213
664.212
641.131
648.687
655.115
660.328
664.324
641.444
648.957
655.365
660.567
664.557
641.525
648.995
655.379
660.568
664.553
640.91
648.568
655.012
660.226
664.222
641.323
649.136
655.594
660.804
664.794
640.922
648.658
655.12
660.339
664.336
641.372
649.22
655.688
660.901
664.893
641.024
648.641
655.068
660.273
664.265
641.475
649.26
655.702
660.904
664.89
641.09
648.675
655.081
660.275
664.261
641.602
649.362
655.785
660.976
664.958
640.913
648.689
655.171
660.402
664.403
641.428
649.328
655.822
661.05
665.048
640.941
648.725
655.206
660.434
664.434
641.444
649.348
655.84
661.066
665.063
641.012
648.819
655.298
660.522
664.52
641.506
649.413
655.9
661.122
665.117
641.23
649.091
655.569
660.788
664.783
641.666
649.567
656.047
661.264
665.256
641.59
649.463
655.935
661.149
665.14
656.709
658.098
656.9
658.32
657.339
658.796
658.041
659.469
659.173
660.41
662.062
663.676
660.769
662.173
663.17
664.948
664.168
665.971
674.494
692.613
707.242
718.334
725.743
674.093
692.402
707.221
718.398
725.936
674.671
692.739
707.333
718.404
725.801
674.325
692.581
707.32
718.515
726.015
675.03
692.989
707.512
718.542
725.918
674.675
692.82
707.49
718.644
726.125
675.591
693.374
707.789
718.759
726.106
675.191
693.17
707.74
718.839
726.294
676.388
693.912
708.183
719.072
726.381
675.858
693.615
708.062
719.095
726.519
678.3
695.248
709.178
719.864
727.065
677.953
695.039
709.105
719.905
727.198
677.33
694.544
708.648
719.443
726.705
676.818
694.239
708.516
719.449
726.818
679.22
695.957
709.726
720.305
727.447
679.032
695.854
709.721
720.391
727.611
680.116
696.672
710.291
720.768
727.853
680.021
696.665
710.342
720.893
728.06
624.472
626.218
624.96
623.136
620.725
621.722
620.709
621.848
622.521
623.702
622.515
623.53
642.481
642.165
641.373
640.116
638.421
636.384
642.607
642.306
641.553
640.375
638.828
637.011
643.29
644.498
642.932
644.088
642.042
643.08
640.615
641.435
638.705
639.33
636.49
637.163
634.202
632.14
630.377
628.931
627.853
627.066
635.077
633.203
631.524
630.116
629.025
628.26
641.003
640.419
640.521
641.312
642.793
640.683
640.095
640.194
640.982
642.463
639.884
639.289
639.38
640.164
641.644
638.615
638.008
638.088
638.863
640.341
636.902
636.275
636.337
637.099
638.572
634.836
634.179
634.211
634.952
636.416
641.128
640.542
640.642
641.431
642.911
640.823
640.233
640.329
641.116
642.595
640.063
639.465
639.553
640.334
641.812
638.872
638.261
638.338
639.11
640.585
637.306
636.675
636.732
637.49
638.96
635.462
634.802
634.83
635.567
637.029
641.816
641.233
641.336
642.127
643.607
643.027
642.446
642.55
643.339
644.817
641.453
640.868
640.967
641.756
643.235
642.613
642.029
642.129
642.916
644.393
640.557
639.964
640.056
640.84
642.319
641.597
641.005
641.098
641.88
643.356
639.116
638.51
638.591
639.367
640.844
639.937
639.331
639.41
640.184
641.657
637.187
636.56
636.621
637.383
638.856
637.811
637.181
637.238
637.995
639.464
634.943
634.285
634.316
635.056
636.52
635.613
634.95
634.974
635.708
637.168
632.613
631.911
631.898
632.605
634.055
630.493
629.726
629.649
630.307
631.734
628.647
627.789
627.624
628.215
629.609
627.084
626.107
625.832
626.338
627.687
625.869
624.771
624.394
624.823
626.13
624.989
623.823
623.393
623.784
625.069
633.491
632.789
632.776
633.482
634.931
631.567
630.809
630.742
631.407
632.835
629.823
628.995
628.86
629.472
630.876
628.34
627.432
627.222
627.778
629.153
627.176
626.198
625.924
626.432
627.782
626.369
625.352
625.046
625.531
626.87
642.318
641.674
640.554
638.967
636.939
634.56
642.445
641.819
640.743
639.245
637.388
635.285
643.121
644.319
642.421
643.552
641.189
642.182
639.412
640.164
637.15
637.691
634.542
635.069
632.064
629.795
628.003
626.83
626.384
626.535
633.123
631.136
629.519
628.409
627.867
627.848
640.84
640.256
640.359
641.151
642.633
640.194
639.608
639.709
640.5
641.983
639.067
638.476
638.573
639.363
640.847
637.47
636.87
636.959
637.744
639.228
635.426
634.811
634.887
635.664
637.147
633.025
632.387
632.441
633.203
634.683
640.966
640.381
640.482
641.272
642.753
640.338
639.75
639.849
640.639
642.12
639.255
638.662
638.756
639.543
641.025
637.747
637.143
637.229
638.011
639.493
635.873
635.254
635.326
636.098
637.578
633.747
633.105
633.155
633.911
635.387
641.646
641.064
641.168
641.96
643.441
642.848
642.269
642.373
643.164
644.642
640.944
640.36
640.462
641.254
642.736
642.077
641.495
641.598
642.388
643.867
639.705
639.116
639.214
640.004
641.486
640.701
640.113
640.211
640.999
642.48
637.917
637.319
637.409
638.194
639.678
638.67
638.072
638.161
638.945
640.426
635.639
635.025
635.102
635.879
637.362
636.181
635.566
635.641
636.415
637.896
633.009
632.373
632.429
633.193
634.673
633.536
632.899
632.953
633.714
635.193
630.495
629.821
629.843
630.58
632.051
628.178
627.452
627.422
628.122
629.576
626.314
625.51
625.406
626.049
627.475
625.031
624.115
623.906
624.469
625.854
624.442
623.396
623.074
623.549
624.886
624.475
623.33
622.922
623.331
624.628
631.553
630.877
630.894
631.627
633.093
629.523
628.798
628.769
629.467
630.918
627.847
627.058
626.967
627.618
629.046
626.663
625.795
625.629
626.223
627.622
626.042
625.094
624.854
625.391
626.76
625.966
624.962
624.668
625.164
626.51
626.423
626.102
629.5
632.05
632.175
632.787
630.452
624.879
625.588
625.126
627.236
626.914
626.576
628.162
628.479
629.437
624.716
624.834
626.613
626.795
625.713
626.025
627.41
627.735
629.995
630.016
628.093
628.091
625.53
625.485
624.668
625.316
625.556
624.81
627.223
629.245
626.762
623.14
621.51
620.841
620.975
621.943
623.672
622.296
621.711
621.974
623.181
627.892
627.178
627.16
627.869
629.329
630.487
629.821
629.849
630.593
632.067
630.604
629.925
629.94
630.673
632.141
631.23
630.57
630.603
631.35
632.824
628.864
628.17
628.172
628.896
630.362
621.992
620.518
619.925
620.131
621.104
622.789
621.377
620.847
621.115
622.173
623.011
621.837
621.405
621.798
623.087
624.735
623.476
623.056
623.423
624.645
625.129
624.229
624.036
624.612
626.004
624.637
623.605
623.297
623.785
625.129
626.452
625.625
625.497
626.122
627.538
626.734
625.87
625.706
626.303
627.704
627.754
626.953
626.848
627.489
628.913
621.881
620.44
619.871
620.095
621.104
622.829
621.738
621.375
621.819
623.138
624.86
623.991
623.826
624.423
625.827
625.079
624.248
624.118
624.743
626.162
623.897
622.969
622.751
623.307
624.69
624.26
623.381
623.207
623.797
625.198
625.727
624.931
624.835
625.485
626.916
626.077
625.307
625.236
625.904
627.345
628.366
627.624
627.578
628.263
629.709
628.409
627.694
627.674
628.381
629.838
626.415
625.623
625.529
626.18
627.61
626.436
625.669
625.599
626.269
627.71
622.46
620.934
620.315
620.494
621.493
623.263
622.024
621.547
621.898
623.162
622.238
620.941
620.419
620.708
621.838
623.364
622.314
621.986
622.456
623.79
623.726
622.783
622.55
623.095
624.471
622.785
621.675
621.29
621.714
623.024
625.538
624.741
624.643
625.292
626.723
627.629
626.905
626.876
627.578
629.033
625.05
624.225
624.1
624.729
626.149
627.51
626.133
625.579
625.8
626.728
628.537
626.86
626.98
624.361
624.309
627.103
627.32
624.441
624.561
629.558
632.379
629.583
632.123
629.848
629.712
631.664
626.791
626.923
624.262
624.195
627.058
627.275
624.363
624.525
629.713
632.699
629.729
632.366
629.977
629.769
631.871
626.831
626.974
624.239
624.155
627.118
627.343
624.364
624.531
629.858
633.474
629.875
633.033
630.121
629.896
632.429
627.338
627.477
624.683
624.594
627.631
627.894
624.812
625.005
630.563
634.383
630.546
633.909
630.753
630.489
633.181
628.231
628.362
625.583
625.495
628.511
628.82
625.707
625.893
631.475
635.046
631.44
634.666
631.603
631.401
633.956
629.834
629.952
627.232
627.149
630.067
630.321
627.349
627.511
632.899
636.196
632.835
635.837
632.965
632.748
635.118
620.337
620.323
622.126
622.116
620.366
620.4
622.167
622.23
619.047
618.073
619.11
618.223
619.129
619.295
618.52
620.212
620.221
622.014
621.987
620.296
620.369
622.085
622.161
618.867
618.065
618.965
618.25
619.055
619.277
618.563
620.155
620.192
621.972
621.923
620.308
620.418
622.076
622.194
618.95
618.417
619.074
618.583
619.225
619.455
618.873
620.595
620.651
622.406
622.345
620.792
620.945
622.526
622.644
619.505
619.231
619.648
619.384
619.856
620.13
619.657
621.537
621.601
623.324
623.259
621.777
621.988
623.444
623.576
620.554
620.427
620.708
620.549
620.943
621.245
620.777
623.265
623.33
625.013
624.949
623.506
623.687
625.132
625.255
622.299
621.995
622.446
622.127
622.64
622.897
622.36
641.717
641.267
640.385
639.653
638.462
637.722
635.78
635.182
636.296
635.598
638.401
637.695
639.93
639.26
641.157
640.674
637.887
636.946
636.623
635.323
634.633
633.424
633.476
631.943
643.393
646.167
642.907
645.495
642.153
644.82
641.356
643.87
639.432
640.894
638.097
639.943
643.199
641.634
635.048
632.731
633.789
632.064
632.093
630.145
630.596
629.119
637.844
635.425
636.457
634.627
640.069
637.721
649.364
651.256
648.05
650.012
648.001
650.38
646.431
648.612
646.065
649.287
643.669
646.647
641.823
644.764
639.729
642.714
637.208
636.796
635.195
635.005
632.895
632.361
631.305
630.77
638.948
639.537
641.327
641.451
633.493
633.518
631.953
632.281
629.866
629.429
628.512
628.281
637.004
637.951
635.283
636.667
642.634
646.23
644.045
648.104
645.214
648.908
646.056
650.281
640.511
643.999
642.395
646.369
638.638
642.069
641.095
645.005
653.898
658.076
654.569
658.72
652.614
656.49
653.871
657.826
650.52
653.49
652.73
655.982
640.073
634.963
644.714
648.217
652.015
635.674
641.075
646.605
650.351
654.47
634.368
639.18
643.851
648.282
652.629
661.937
663.799
664.055
665.711
659.93
662.071
662.71
664.502
656.548
658.95
660.462
662.6
636.843
638.763
642.749
645.382
648.198
650.938
652.559
655.277
658.366
661.104
635.232
636.783
640.624
643.372
645.696
648.839
650.76
654.164
657.167
660.764
638.157
641.252
635.937
638.682
632.866
633.737
630.888
631.365
641.312
644.98
643.483
647.377
634.05
636.807
632.834
635.464
629.294
629.745
628.148
628.476
639.332
643.074
638.103
641.759
647.448
651.912
655.07
660.506
649.195
653.878
656.23
661.562
645.833
650.159
653.954
659.305
644.306
648.675
652.346
657.412
664.314
665.086
666.612
664.694
664.968
666.356
663.013
663.991
665.615
663.722
664.081
665.581
660.441
661.749
663.569
662.296
662.872
664.56
641.124
643.83
646.727
648.181
650.543
653.102
653.529
655.554
657.806
657.377
659.065
661.216
661.176
662.001
663.981
638.965
641.994
645.268
647.026
650.196
653.444
652.544
655.333
658.239
657.013
659.084
661.646
661.14
662.225
664.511
628.866
627.894
628.006
626.757
631.465
630.261
630.473
628.986
628.35
626.343
628.128
626.258
627.749
625.955
627.328
625.646
625.96
626.783
625.44
626.405
625.592
624.914
625.781
624.644
627.796
626.525
625.399
624.321
624.647
623.618
624.511
623.455
624.32
622.546
624.671
623.003
624.039
622.219
624.121
622.441
623.798
621.81
623.338
621.525
622.987
621.393
622.084
620.774
626.593
625.738
625.482
624.522
629.321
628.576
628.012
627.202
623.721
622.58
624.691
623.646
624.393
623.468
623.307
622.537
626.771
626.018
625.568
624.977
622.766
621.65
621.775
620.826
622.251
620.688
621.309
620.384
623.032
621.354
622.24
621.163
621.473
620.094
620.493
619.71
620.612
619.457
619.773
619.125
624.373
625.223
622.72
623.609
624.333
625.238
622.587
623.516
624.292
625.109
622.385
623.22
627.401
630.634
625.383
623.804
622.135
631.283
628.081
626.191
624.639
622.873
630.03
626.885
624.642
623.14
621.934
626.708
628.764
625.113
627.106
626.585
628.544
624.87
626.782
626.284
628.136
624.402
626.186
632.13
633.716
628.735
630.347
626.803
628.458
625.336
627.02
623.674
625.357
630.551
631.474
627.327
628.257
625.148
626.262
623.756
625.124
622.705
624.403
625.535
625.845
624.288
624.25
628.467
628.681
626.967
626.731
622.571
622.974
623.643
624.336
623.329
623.02
622.406
622.002
625.8
625.304
624.761
624.151
621.709
621.875
620.884
620.967
621.52
622.387
621.051
622.421
622.5
623.618
621.816
623.375
620.718
621.368
620.39
621.583
620.041
620.603
619.796
620.833
631.563
634.352
636.989
630.541
633.691
636.336
631.169
633.991
636.688
630.079
633.247
636.006
630.604
633.374
636.114
629.331
632.651
635.597
635.865
638.557
641.476
632.544
635.333
638.312
630.69
633.598
636.626
629.384
632.28
635.208
628.517
632.011
635.222
633.18
636.092
639.397
630.048
633.015
636.331
628.313
631.456
634.868
627.536
630.843
634.284
627.711
631.375
634.906
621.848
623.123
626.393
632.385
622.383
623.746
627.127
633.175
621.609
622.933
626.212
632.257
621.942
623.393
626.804
632.867
621.307
622.702
625.845
631.71
621.178
622.737
626.089
632.08
621.27
622.997
626.588
632.732
620.933
622.854
626.591
632.78
620.6
622.252
625.527
631.463
620.695
622.458
625.458
630.799
621.099
622.588
625.552
631.062
621.253
622.848
625.638
630.67
620.194
622.009
625.538
631.691
620.208
622.121
625.294
630.758
619.778
621.751
625.403
631.526
619.782
621.826
625.092
630.531
621.932
623.073
626.05
631.689
622.661
623.634
626.18
631.106
621.864
623.041
625.974
631.573
622.629
623.647
626.177
631.054
621.77
623.016
625.856
631.294
622.474
623.59
626.126
630.945
621.741
623.079
625.779
630.898
622.326
623.55
626.056
630.74
621.809
623.248
625.828
630.515
623.791
624.617
626.912
630.421
625.066
625.799
628.14
631.416
623.654
624.545
626.858
630.354
624.923
625.733
628.104
631.392
623.395
624.41
626.776
630.297
624.664
625.609
628.039
631.334
623.02
624.203
626.62
630.158
624.311
625.428
627.93
631.253
622.535
623.931
626.432
630.006
623.897
625.219
627.814
631.172
621.604
623.405
626.178
629.887
622.832
624.606
627.429
630.909
622.061
623.67
626.312
629.957
623.363
624.915
627.623
631.036
621.192
623.158
626.055
629.831
622.342
624.315
627.252
630.771
620.797
622.903
625.883
629.691
621.894
624.032
627.066
630.622
641.524
648.917
655.232
660.38
664.347
641.986
649.3
655.599
660.742
664.706
641.466
648.888
655.213
660.365
664.334
641.89
649.234
655.545
660.695
664.661
641.365
648.843
655.184
660.342
664.313
641.564
648.952
655.282
660.44
664.411
641.745
649.143
655.482
660.645
664.618
641.638
649.065
655.422
660.597
664.575
641.3
648.806
655.161
660.326
664.3
641.669
649.345
655.724
660.891
664.862
641.382
648.937
655.294
660.456
664.427
641.785
649.469
655.843
661.005
664.974
641.294
648.806
655.171
660.342
664.319
641.711
649.403
655.791
660.963
664.937
641.183
648.731
655.116
660.298
664.279
641.684
649.411
655.816
660.996
664.974
641.567
649.082
655.415
660.564
664.529
642.099
649.727
656.067
661.212
665.173
641.558
649.099
655.44
660.591
664.558
642.092
649.736
656.082
661.229
665.191
641.566
649.154
655.507
660.662
664.63
642.096
649.766
656.12
661.27
665.233
641.725
649.388
655.754
660.912
664.881
642.187
649.879
656.241
661.394
665.358
642.046
649.737
656.105
661.263
665.23
673.026
674.232
672.466
673.705
671.497
672.869
670.268
671.871
669.052
670.902
667.145
669.29
668.124
670.218
666.174
668.244
665.158
667.043
686.422
701.176
713.665
723.468
730.252
686.2
701.059
713.69
723.558
730.456
686.169
701.041
713.578
723.403
730.195
685.981
700.968
713.612
723.539
730.421
685.689
700.771
713.4
723.269
730.079
685.516
700.708
713.441
723.41
730.31
685.04
700.383
713.137
723.071
729.909
684.923
700.354
713.203
723.231
730.156
684.285
699.892
712.794
722.81
729.684
684.283
699.937
712.91
723.006
729.961
682.651
698.676
711.877
722.075
729.027
682.816