/*--------------------------------*- C++ -*----------------------------------*\
  =========                 |
  \\      /  F ield         | OpenFOAM: The Open Source CFD Toolbox
   \\    /   O peration     | Website:  https://openfoam.org
    \\  /    A nd           | Version:  12
     \\/     M anipulation  |
\*---------------------------------------------------------------------------*/
FoamFile
{
    format      ascii;
    class       volScalarField;
    location    "405";
    object      T;
}
// * * * * * * * * * * * * * * * * * * * * * * * * * * * * * * * * * * * * * //

dimensions      [];

internalField   nonuniform List<scalar> 
4480
(
6.37933e-07
4.31331e-05
0.00855531
0.0707253
0.180579
0.299039
0.406341
0.496629
0.570134
0.629134
0.676267
0.713918
0.744054
0.768242
0.7877
0.803369
0.815976
0.826086
0.834132
0.840453
0.845321
0.848943
0.851488
0.853085
0.85384
0.85384
0.853153
0.852096
0.851025
0.849934
0.848821
0.847679
0.8465
0.845279
0.844011
0.842689
0.841308
0.83986
0.838336
0.836734
0.835046
0.83326
0.831367
0.829365
0.827241
0.824984
0.822585
0.820038
0.817326
0.814437
0.811366
0.808101
0.804622
0.800921
0.796985
0.792796
0.788349
0.783629
0.778614
0.773299
0.767663
0.761695
0.75538
0.748707
0.741652
0.734216
0.726369
0.718114
0.709416
0.700282
0.690681
0.680605
0.670036
0.65896
0.647355
0.635202
0.622481
0.609165
0.595226
0.580633
0.565348
0.549334
0.53255
0.515046
0.496811
0.477832
0.45811
0.437671
0.416566
0.394883
0.372742
0.350305
0.327765
0.305343
0.283285
0.261842
0.241269
0.221802
0.203659
0.187024
0.172042
0.158821
0.147425
0.137893
0.130229
0.124422
0.120456
0.118312
0.11799
0.119509
0.122923
0.128322
0.135837
0.14565
0.157978
0.173082
0.19124
0.212737
0.237845
0.266896
0.30059
0.340541
0.38945
0.453592
0.556899
0.713982
0.829841
0.922294
0.906681
0.776886
0.660281
0.50349
0.376962
0.285227
0.210423
0.148018
0.0963438
0.0548131
0.0242691
0.00554155
2.74897e-07
0.00153855
0.0596097
0.225382
0.408059
0.558326
0.669495
0.748668
0.804581
0.844303
0.872892
0.893803
0.909364
0.921131
0.930145
0.937134
0.942591
0.946866
0.950211
0.952811
0.954804
0.956287
0.95734
0.958019
0.958373
0.958432
0.958227
0.957636
0.956573
0.955086
0.953219
0.951015
0.94852
0.945772
0.942804
0.939654
0.936352
0.932923
0.929388
0.925768
0.922082
0.918342
0.914553
0.910729
0.906875
0.90299
0.899078
0.895136
0.891161
0.887151
0.883098
0.879002
0.87485
0.870635
0.866351
0.861986
0.857538
0.852992
0.848339
0.843576
0.838685
0.833668
0.828505
0.823195
0.817729
0.812105
0.806306
0.800326
0.794166
0.787819
0.781274
0.774528
0.767576
0.760416
0.753034
0.745433
0.737607
0.729544
0.721255
0.712722
0.703942
0.694919
0.685638
0.67612
0.666377
0.6564
0.646187
0.635747
0.625071
0.614172
0.603056
0.591735
0.58023
0.568571
0.556796
0.544949
0.533103
0.521326
0.509717
0.498392
0.487481
0.47713
0.46751
0.458799
0.451201
0.444919
0.440177
0.437189
0.436186
0.437386
0.441006
0.447242
0.456285
0.468293
0.483395
0.501689
0.523221
0.548008
0.576042
0.60736
0.642143
0.680806
0.723861
0.771707
0.824003
0.876571
0.920969
0.951447
0.932687
0.852787
0.768545
0.67677
0.581709
0.486543
0.392491
0.301069
0.214378
0.135671
0.0698557
0.0231295
5.75096e-05
0.0148144
0.176956
0.415853
0.60925
0.738717
0.820242
0.871141
0.903455
0.924603
0.938965
0.949115
0.956549
0.962165
0.966502
0.969909
0.972609
0.974756
0.97646
0.977803
0.978846
0.979633
0.980204
0.980587
0.980802
0.980868
0.980797
0.980562
0.980121
0.979478
0.978636
0.977589
0.97634
0.974882
0.973222
0.971359
0.969301
0.967056
0.964634
0.962044
0.959302
0.956417
0.953405
0.950276
0.947043
0.943721
0.940316
0.936839
0.933297
0.929699
0.926051
0.922356
0.918616
0.914834
0.911015
0.907153
0.903254
0.899313
0.895328
0.8913
0.887224
0.883102
0.878925
0.874698
0.870413
0.866067
0.861662
0.857191
0.852652
0.848049
0.843366
0.838615
0.833788
0.828884
0.823896
0.818832
0.813688
0.808458
0.803145
0.797755
0.792276
0.78672
0.781078
0.775362
0.769571
0.763721
0.757817
0.751862
0.745862
0.739836
0.733792
0.727747
0.721726
0.715743
0.709834
0.704031
0.69837
0.692897
0.687668
0.682743
0.678186
0.674078
0.670513
0.66758
0.665395
0.664072
0.663732
0.664508
0.666538
0.669946
0.674861
0.681398
0.689657
0.69971
0.711605
0.725346
0.740912
0.758237
0.777228
0.797775
0.819744
0.842953
0.867074
0.89149
0.915167
0.936499
0.953314
0.962862
0.949109
0.897848
0.841162
0.777166
0.704482
0.622478
0.531239
0.431808
0.326755
0.221148
0.123659
0.0462629
0.00102532
0.0655448
0.343317
0.600136
0.761232
0.851167
0.900524
0.928406
0.945052
0.955732
0.963128
0.968607
0.972873
0.976287
0.979058
0.981315
0.983157
0.984646
0.985843
0.986791
0.987532
0.988095
0.988507
0.988792
0.988964
0.989037
0.98902
0.988906
0.988684
0.988357
0.987921
0.987374
0.986711
0.985925
0.985007
0.983956
0.982764
0.981424
0.979939
0.978304
0.976523
0.974597
0.972531
0.970332
0.968006
0.965563
0.963008
0.960355
0.957608
0.95478
0.951878
0.948909
0.945884
0.942805
0.939683
0.936524
0.93333
0.930103
0.926854
0.923579
0.920287
0.916972
0.913644
0.910301
0.906941
0.903568
0.900184
0.896783
0.893372
0.889944
0.886501
0.883047
0.879574
0.876088
0.872583
0.869061
0.865522
0.86197
0.858399
0.854807
0.851201
0.847583
0.843957
0.840303
0.836643
0.832979
0.829314
0.825661
0.822023
0.818408
0.814828
0.8113
0.80784
0.804462
0.801196
0.798058
0.795085
0.792303
0.789751
0.787472
0.785513
0.783919
0.78275
0.782062
0.781927
0.782399
0.78356
0.785473
0.788208
0.791832
0.796406
0.801976
0.808584
0.816249
0.824967
0.834716
0.84545
0.857091
0.869535
0.882644
0.896239
0.910069
0.923787
0.936901
0.948755
0.958495
0.964995
0.96667
0.956867
0.922506
0.882647
0.836621
0.781868
0.715735
0.635717
0.539885
0.428104
0.303941
0.177718
0.0682924
0.00723497
0.175343
0.525568
0.749438
0.860571
0.913397
0.939591
0.953789
0.962459
0.968501
0.97318
0.977038
0.980287
0.98302
0.985296
0.987163
0.988678
0.98989
0.990842
0.991581
0.992143
0.99256
0.992861
0.993064
0.993189
0.993248
0.993249
0.993188
0.993057
0.992856
0.992586
0.992245
0.991832
0.991343
0.990774
0.990119
0.98937
0.988526
0.987577
0.986523
0.985356
0.984078
0.982682
0.981174
0.979552
0.97782
0.975984
0.974046
0.972014
0.969893
0.967693
0.965419
0.963079
0.960681
0.958235
0.955746
0.953221
0.950663
0.948085
0.945487
0.942875
0.940254
0.93763
0.935006
0.932378
0.92976
0.927145
0.924537
0.921939
0.919351
0.916774
0.914204
0.91165
0.909104
0.906572
0.904049
0.901541
0.899041
0.896549
0.894074
0.891608
0.889154
0.886717
0.884285
0.881867
0.879467
0.877087
0.87473
0.872407
0.870123
0.867887
0.865706
0.863599
0.861573
0.859646
0.857835
0.856162
0.854653
0.853327
0.85222
0.851355
0.850769
0.850501
0.850587
0.851066
0.851984
0.853379
0.855291
0.857761
0.860828
0.864513
0.868845
0.87383
0.879471
0.885753
0.892635
0.900072
0.907986
0.916279
0.924817
0.933434
0.941917
0.949985
0.957282
0.963353
0.967634
0.969361
0.967445
0.959452
0.935689
0.905617
0.870941
0.829279
0.777389
0.711103
0.625393
0.515771
0.381056
0.229758
0.0875172
0.0289287
0.336469
0.690682
0.852012
0.916685
0.944058
0.957302
0.964951
0.970292
0.974642
0.978488
0.981908
0.984874
0.987375
0.989418
0.991052
0.992328
0.993301
0.994029
0.994555
0.994925
0.995176
0.99534
0.995438
0.995489
0.995508
0.995501
0.995469
0.995388
0.995261
0.995089
0.99487
0.994602
0.994283
0.993909
0.993477
0.992983
0.992421
0.991788
0.99108
0.990292
0.989419
0.988459
0.987411
0.986273
0.985045
0.983727
0.982321
0.980834
0.979265
0.977622
0.975909
0.974133
0.9723
0.970415
0.968488
0.966526
0.964532
0.962512
0.960476
0.958431
0.956375
0.954319
0.952265
0.950216
0.94818
0.946153
0.944142
0.942152
0.940175
0.93822
0.936285
0.934373
0.932483
0.930612
0.928766
0.926937
0.925135
0.923354
0.921593
0.919853
0.918139
0.916449
0.914779
0.913123
0.911492
0.909889
0.908315
0.906773
0.905269
0.903813
0.90241
0.901067
0.899794
0.898605
0.897512
0.896529
0.895675
0.894961
0.89441
0.894047
0.893889
0.893965
0.894299
0.894915
0.895844
0.897105
0.898732
0.900742
0.903154
0.905987
0.909243
0.912925
0.917023
0.921517
0.926367
0.931529
0.936929
0.942482
0.948071
0.953557
0.95876
0.963459
0.96738
0.970186
0.971445
0.970591
0.966839
0.959087
0.942529
0.918381
0.890662
0.857666
0.816525
0.762808
0.689556
0.588076
0.450253
0.278697
0.104316
0.0792317
0.516573
0.814543
0.911272
0.944263
0.958024
0.96536
0.970357
0.974517
0.978401
0.982106
0.985467
0.988334
0.990665
0.992491
0.993877
0.994891
0.995598
0.996059
0.996333
0.996469
0.996512
0.996497
0.996455
0.996405
0.99636
0.996324
0.996303
0.99626
0.996195
0.996106
0.995989
0.995841
0.99566
0.995441
0.995177
0.994869
0.994511
0.994099
0.993631
0.9931
0.992505
0.991844
0.991112
0.990312
0.989437
0.988489
0.987469
0.986381
0.985222
0.983998
0.982715
0.981373
0.979978
0.978538
0.977058
0.97554
0.973995
0.972428
0.970842
0.969244
0.967639
0.966033
0.964427
0.962832
0.961247
0.959672
0.958116
0.956576
0.955059
0.953561
0.952089
0.950636
0.949211
0.94781
0.946432
0.945077
0.943747
0.942444
0.941167
0.939909
0.93868
0.937481
0.936293
0.935131
0.933992
0.932878
0.93179
0.930735
0.929715
0.928732
0.927794
0.926911
0.92608
0.92532
0.92463
0.92403
0.923525
0.923128
0.922856
0.922719
0.922739
0.922929
0.923304
0.923886
0.924689
0.92573
0.927026
0.928586
0.930427
0.932546
0.93495
0.937633
0.940582
0.943771
0.947165
0.950721
0.954379
0.958059
0.961665
0.965075
0.968138
0.970676
0.972469
0.97324
0.972649
0.970258
0.965484
0.957579
0.945106
0.925441
0.902101
0.874597
0.840715
0.796725
0.735218
0.644755
0.509846
0.323567
0.1194
0.167784
0.679298
0.890424
0.940155
0.956714
0.964542
0.969505
0.973514
0.977323
0.981196
0.985005
0.988385
0.991142
0.993264
0.994828
0.995926
0.996638
0.997035
0.997186
0.997155
0.997003
0.996784
0.996546
0.996321
0.996134
0.995999
0.995923
0.9959
0.99589
0.995885
0.99588
0.995869
0.995845
0.995803
0.995735
0.995637
0.995501
0.995326
0.995109
0.99484
0.994523
0.99415
0.99372
0.993233
0.992684
0.992077
0.991408
0.990678
0.989887
0.98904
0.988134
0.987175
0.986166
0.985113
0.984015
0.982881
0.981715
0.980521
0.979306
0.978074
0.976833
0.975579
0.974327
0.973076
0.971827
0.970591
0.969365
0.968157
0.966961
0.965785
0.964631
0.9635
0.962386
0.961301
0.960233
0.959191
0.958174
0.957178
0.956209
0.955261
0.954335
0.953438
0.952561
0.951707
0.950868
0.950052
0.949258
0.948486
0.947741
0.947029
0.946344
0.945698
0.945094
0.944532
0.944022
0.943572
0.943187
0.942876
0.942646
0.94251
0.942473
0.942554
0.942754
0.943093
0.94358
0.944223
0.945038
0.946026
0.947203
0.948567
0.950125
0.951868
0.953788
0.955875
0.958101
0.960436
0.962837
0.96525
0.967605
0.96982
0.971785
0.973379
0.974444
0.9748
0.974215
0.972412
0.969039
0.96366
0.955742
0.944694
0.929091
0.908691
0.884734
0.855519
0.818298
0.766233
0.687029
0.559021
0.363583
0.13337
0.298508
0.797783
0.927447
0.95283
0.962631
0.968071
0.972053
0.97568
0.979457
0.983498
0.987487
0.99087
0.99345
0.995305
0.996566
0.997344
0.997718
0.997757
0.997536
0.99713
0.996618
0.996071
0.995546
0.995088
0.994726
0.994477
0.994344
0.994317
0.994338
0.994401
0.994493
0.994603
0.994721
0.994838
0.994942
0.995024
0.995077
0.995094
0.995069
0.995003
0.994885
0.994719
0.994499
0.994225
0.993895
0.993509
0.993066
0.99257
0.992021
0.991417
0.990764
0.990062
0.989316
0.988528
0.987701
0.986841
0.985949
0.985033
0.984096
0.983142
0.982178
0.981205
0.980227
0.979251
0.978279
0.977312
0.976357
0.975413
0.974482
0.97357
0.972675
0.971798
0.97094
0.9701
0.969283
0.968486
0.967711
0.966956
0.966222
0.965509
0.964814
0.964145
0.963494
0.962865
0.962247
0.961648
0.961069
0.960509
0.959972
0.959454
0.958966
0.958502
0.958075
0.95768
0.957326
0.957016
0.956757
0.956548
0.956406
0.956328
0.956331
0.956411
0.956583
0.956853
0.957229
0.957716
0.958324
0.959053
0.959909
0.960891
0.962002
0.963229
0.964567
0.965998
0.9675
0.96904
0.970587
0.972082
0.973467
0.974667
0.975588
0.976124
0.976137
0.975469
0.97393
0.971286
0.967254
0.961492
0.953604
0.943158
0.92973
0.91224
0.890711
0.864524
0.831779
0.786538
0.717135
0.597898
0.398298
0.146684
0.459863
0.86609
0.941592
0.958829
0.965981
0.970315
0.973811
0.977305
0.981183
0.985478
0.989673
0.99299
0.99532
0.996862
0.997803
0.998238
0.998231
0.997844
0.997164
0.99629
0.995322
0.994356
0.993468
0.992717
0.992139
0.991748
0.991547
0.991512
0.991574
0.99172
0.991932
0.992193
0.992485
0.992792
0.9931
0.993395
0.993665
0.993901
0.994096
0.994246
0.994346
0.994392
0.994381
0.994314
0.994192
0.994015
0.99378
0.99349
0.993148
0.992757
0.992313
0.991825
0.991294
0.990721
0.990115
0.989477
0.988807
0.988115
0.987401
0.986668
0.985926
0.985174
0.984417
0.983658
0.982901
0.982148
0.981402
0.980668
0.979942
0.979231
0.97853
0.977849
0.977182
0.976534
0.975901
0.975285
0.974689
0.974107
0.973547
0.973
0.972473
0.971965
0.971471
0.970998
0.970534
0.970087
0.969654
0.969235
0.968833
0.968452
0.968089
0.967747
0.96743
0.967142
0.966882
0.966656
0.966464
0.966316
0.966213
0.966156
0.966158
0.966217
0.96634
0.966535
0.966802
0.967148
0.967574
0.968081
0.968674
0.969348
0.9701
0.970921
0.971801
0.972724
0.973667
0.974601
0.97549
0.976286
0.976937
0.97737
0.977507
0.977247
0.976474
0.975048
0.97281
0.969555
0.965059
0.959038
0.951187
0.94116
0.928594
0.913106
0.893961
0.86985
0.840049
0.799427
0.737653
0.627317
0.427632
0.159682
0.593185
0.903853
0.950577
0.962439
0.968144
0.971865
0.97509
0.978561
0.98261
0.987211
0.991605
0.994778
0.996793
0.998007
0.998621
0.99869
0.998239
0.997332
0.996073
0.994602
0.993054
0.991557
0.990214
0.989102
0.988258
0.987704
0.987432
0.987391
0.987511
0.987767
0.988136
0.988589
0.9891
0.989646
0.990204
0.990757
0.991286
0.99178
0.992232
0.99263
0.992972
0.993254
0.993471
0.993625
0.993716
0.993745
0.993714
0.993623
0.993477
0.993277
0.993026
0.992727
0.992386
0.992002
0.991581
0.991127
0.990644
0.990137
0.989604
0.989057
0.988496
0.987922
0.987343
0.98676
0.986175
0.985592
0.985015
0.98444
0.983878
0.983321
0.982779
0.982248
0.981728
0.981223
0.980728
0.980253
0.979788
0.979339
0.978903
0.978479
0.978071
0.97768
0.977299
0.976935
0.976583
0.976238
0.975904
0.975584
0.975279
0.974984
0.974707
0.974445
0.974199
0.973976
0.97377
0.973594
0.973442
0.973319
0.973226
0.973172
0.973155
0.97318
0.973246
0.973364
0.973527
0.973746
0.974014
0.974335
0.974708
0.975128
0.97559
0.976084
0.976597
0.977114
0.977615
0.978067
0.97844
0.978686
0.978758
0.978594
0.978119
0.977244
0.975865
0.97386
0.971088
0.967377
0.962534
0.95633
0.948506
0.938772
0.926803
0.912218
0.894483
0.872699
0.844895
0.807325
0.751
0.64854
0.451823
0.172626
0.708245
0.924987
0.956404
0.965301
0.969744
0.972957
0.976023
0.979528
0.983791
0.988725
0.993313
0.996254
0.997911
0.998807
0.999103
0.998764
0.997772
0.996202
0.994203
0.991967
0.989687
0.987531
0.985634
0.984086
0.982936
0.982199
0.981863
0.981829
0.982034
0.982444
0.98302
0.983722
0.984514
0.985359
0.986228
0.987098
0.987943
0.988749
0.989501
0.990189
0.990807
0.991354
0.991827
0.992221
0.992544
0.992792
0.99297
0.993081
0.993129
0.993116
0.993048
0.992927
0.992758
0.992545
0.992292
0.992003
0.991682
0.991333
0.990961
0.990567
0.990158
0.989735
0.989303
0.988863
0.988422
0.987977
0.987533
0.987092
0.986656
0.986227
0.985805
0.985391
0.984986
0.984591
0.984207
0.983834
0.983473
0.983119
0.982777
0.982447
0.982129
0.981822
0.981523
0.981238
0.980959
0.980692
0.980427
0.980175
0.979932
0.979697
0.979474
0.979262
0.979063
0.978876
0.978707
0.978554
0.978418
0.978303
0.97821
0.978139
0.978093
0.978076
0.978088
0.978129
0.9782
0.978301
0.978431
0.978592
0.978779
0.978985
0.979203
0.979426
0.979639
0.979824
0.979959
0.980021
0.979975
0.979782
0.979391
0.978746
0.977782
0.976415
0.974552
0.972089
0.9689
0.964833
0.959726
0.953381
0.945571
0.936043
0.924497
0.910555
0.893676
0.872975
0.846828
0.811834
0.759143
0.662989
0.471326
0.185733
0.793825
0.937903
0.960387
0.967347
0.971047
0.973795
0.976686
0.980252
0.984743
0.99003
0.994803
0.997433
0.99872
0.999335
0.999314
0.998493
0.996813
0.994389
0.991445
0.988248
0.985061
0.982105
0.979546
0.977493
0.976
0.975079
0.974699
0.974698
0.975033
0.975654
0.976506
0.977531
0.978679
0.979902
0.981158
0.982413
0.983639
0.984813
0.985919
0.986946
0.987886
0.988734
0.98949
0.990153
0.990726
0.991209
0.991613
0.991935
0.99218
0.992359
0.992472
0.992527
0.992523
0.992472
0.992375
0.992238
0.992064
0.991858
0.991627
0.991368
0.991092
0.990798
0.990492
0.990176
0.989851
0.989524
0.989191
0.988859
0.988528
0.9882
0.987876
0.987558
0.987245
0.986937
0.986638
0.986344
0.986059
0.985781
0.985512
0.985252
0.984997
0.98475
0.984514
0.984283
0.984059
0.98384
0.983628
0.98342
0.98322
0.983023
0.982835
0.982656
0.982483
0.982317
0.982164
0.98202
0.981885
0.981766
0.981658
0.981563
0.981485
0.981423
0.981373
0.981344
0.981328
0.981325
0.981333
0.981353
0.981375
0.981398
0.981411
0.981403
0.98136
0.981269
0.981103
0.980839
0.980444
0.979884
0.97911
0.978071
0.976701
0.974935
0.972682
0.969848
0.966325
0.961975
0.956655
0.950193
0.942388
0.933006
0.921762
0.908285
0.892036
0.872144
0.847027
0.813442
0.763057
0.671417
0.486458
0.199182
0.83697
0.950094
0.963208
0.968812
0.971966
0.974499
0.977165
0.980755
0.985479
0.991133
0.996093
0.998341
0.999271
0.99966
0.999306
0.997881
0.995314
0.991793
0.987659
0.983279
0.978999
0.975094
0.971773
0.969158
0.967305
0.966212
0.965831
0.965905
0.966433
0.967341
0.968553
0.969992
0.971586
0.973273
0.974998
0.976718
0.978393
0.979999
0.981518
0.982932
0.984237
0.985426
0.9865
0.987459
0.988307
0.989048
0.989688
0.990234
0.99069
0.991064
0.991362
0.99159
0.991755
0.991861
0.991914
0.991919
0.991886
0.991813
0.991708
0.991575
0.991416
0.991237
0.991042
0.990833
0.990611
0.990382
0.990145
0.989905
0.989662
0.989418
0.989175
0.988932
0.988691
0.988455
0.988223
0.987991
0.987769
0.987546
0.987333
0.98712
0.986917
0.986715
0.98652
0.98633
0.986147
0.985962
0.985782
0.985606
0.985431
0.985261
0.985091
0.984927
0.984767
0.984612
0.984461
0.984315
0.984173
0.984038
0.983911
0.983788
0.983671
0.983561
0.983455
0.983353
0.983254
0.983156
0.983054
0.982945
0.982826
0.982687
0.982519
0.98231
0.98205
0.981719
0.981295
0.980754
0.980068
0.979196
0.978099
0.976727
0.975023
0.972921
0.970343
0.967207
0.963407
0.958824
0.953333
0.946773
0.938963
0.929682
0.918658
0.905522
0.889742
0.870457
0.846123
0.813611
0.76494
0.676608
0.496673
0.209149
0.864758
0.954444
0.965249
0.969837
0.972573
0.974936
0.977592
0.981051
0.985999
0.992028
0.997185
0.999004
0.999622
0.999843
0.999109
0.996903
0.993187
0.988286
0.982686
0.976885
0.971317
0.966326
0.96215
0.95893
0.956715
0.95549
0.955172
0.955392
0.956199
0.957495
0.959175
0.961133
0.963276
0.965525
0.967808
0.970071
0.97227
0.974374
0.976359
0.978209
0.979919
0.981486
0.982907
0.984188
0.985334
0.98635
0.987246
0.988024
0.988699
0.989277
0.989764
0.99017
0.990501
0.990764
0.990966
0.991112
0.99121
0.991264
0.991279
0.991261
0.991212
0.991138
0.991042
0.990927
0.990797
0.990654
0.9905
0.990337
0.99017
0.989995
0.989818
0.989641
0.98946
0.98928
0.9891
0.988922
0.988743
0.988567
0.988392
0.988219
0.98805
0.987885
0.98772
0.987559
0.987399
0.987239
0.987078
0.986921
0.98676
0.986604
0.986444
0.986286
0.986128
0.985974
0.985816
0.985662
0.985506
0.98535
0.985196
0.985038
0.984881
0.984722
0.984556
0.984387
0.98421
0.984022
0.983819
0.983594
0.983344
0.983059
0.982731
0.982349
0.981896
0.981354
0.980704
0.979924
0.978982
0.977844
0.976471
0.974816
0.972827
0.970443
0.967596
0.964203
0.960171
0.9554
0.949765
0.943119
0.935297
0.926085
0.91522
0.90234
0.886917
0.868098
0.844367
0.812675
0.765295
0.679401
0.503294
0.216177
0.884402
0.957742
0.966883
0.970499
0.972883
0.975118
0.977806
0.981297
0.986304
0.992707
0.99809
0.999459
0.999826
0.999937
0.998732
0.995507
0.990329
0.983725
0.976369
0.968903
0.96186
0.955648
0.950543
0.946695
0.944151
0.94286
0.942537
0.943007
0.94423
0.946063
0.948358
0.95098
0.953806
0.956732
0.959675
0.962569
0.965364
0.968026
0.97053
0.972861
0.975013
0.976986
0.978781
0.980404
0.981864
0.983168
0.984328
0.985355
0.986255
0.98704
0.987722
0.988307
0.988804
0.989223
0.989571
0.989855
0.990081
0.990256
0.990387
0.990476
0.990529
0.990552
0.990549
0.990519
0.99047
0.990406
0.990324
0.99023
0.990127
0.990015
0.989895
0.989768
0.989638
0.989504
0.989367
0.989229
0.989089
0.988945
0.988803
0.98866
0.988515
0.988371
0.988227
0.988086
0.987941
0.987795
0.987648
0.987497
0.987346
0.987191
0.987034
0.986876
0.986712
0.986548
0.986379
0.986208
0.98603
0.985849
0.985663
0.985469
0.98527
0.985057
0.984836
0.984601
0.984346
0.984072
0.983772
0.983442
0.983073
0.982656
0.982182
0.981642
0.981016
0.980288
0.979444
0.978452
0.977287
0.975916
0.974304
0.972404
0.970171
0.967546
0.964468
0.96086
0.956637
0.951704
0.945947
0.939229
0.931388
0.922227
0.911479
0.898792
0.883646
0.865188
0.841928
0.810877
0.764477
0.680389
0.507183
0.220849
0.898818
0.960103
0.967816
0.970852
0.972926
0.975035
0.977773
0.981475
0.986431
0.993166
0.998818
0.999745
0.999932
0.999979
0.998164
0.993627
0.986627
0.977973
0.968563
0.959193
0.950498
0.942946
0.936852
0.932382
0.929567
0.928317
0.928063
0.928921
0.930711
0.933235
0.9363
0.939727
0.943361
0.947077
0.950773
0.954376
0.957832
0.9611
0.964161
0.967006
0.969625
0.972022
0.974205
0.976183
0.977965
0.979566
0.980996
0.98227
0.983398
0.984394
0.985267
0.986032
0.986696
0.98727
0.987762
0.988181
0.988531
0.988823
0.989062
0.989253
0.989405
0.989517
0.989597
0.98965
0.989675
0.989679
0.989664
0.98963
0.989584
0.989523
0.989453
0.989371
0.989283
0.989185
0.989085
0.988977
0.988863
0.988748
0.988629
0.988506
0.988379
0.988252
0.988121
0.987987
0.987851
0.987712
0.987568
0.987421
0.987269
0.987111
0.986949
0.98678
0.986607
0.986427
0.986242
0.986048
0.985846
0.985636
0.985414
0.985182
0.984935
0.984673
0.984392
0.98409
0.983764
0.983406
0.983016
0.982584
0.982104
0.981567
0.980961
0.980276
0.979494
0.978603
0.977579
0.976399
0.975038
0.973463
0.971642
0.969533
0.967089
0.964259
0.960983
0.957192
0.952804
0.947735
0.941875
0.935091
0.927233
0.918103
0.907446
0.894912
0.879981
0.861812
0.838933
0.808387
0.762748
0.679996
0.508964
0.223644
0.909617
0.961765
0.968304
0.970912
0.972691
0.97468
0.977469
0.981393
0.986549
0.993394
0.999372
0.999903
0.99998
0.999994
0.997386
0.991182
0.981968
0.970906
0.959152
0.947658
0.937147
0.928147
0.921019
0.915952
0.912961
0.911903
0.911964
0.913393
0.915942
0.919338
0.923335
0.927708
0.932265
0.93686
0.941377
0.945742
0.949892
0.953798
0.957433
0.960799
0.963891
0.966717
0.969289
0.971619
0.973722
0.975616
0.977313
0.97883
0.980183
0.981386
0.982449
0.983388
0.984214
0.984937
0.985567
0.986113
0.986587
0.986988
0.987333
0.987621
0.987863
0.988058
0.988217
0.988342
0.988436
0.988502
0.988545
0.988565
0.988568
0.988554
0.988525
0.98848
0.988427
0.98836
0.988286
0.988204
0.988114
0.988016
0.987912
0.987802
0.987689
0.987567
0.987443
0.987315
0.98718
0.987043
0.986896
0.986744
0.986585
0.986419
0.986244
0.986063
0.985871
0.985674
0.985465
0.985246
0.985016
0.984771
0.984513
0.984236
0.983942
0.983629
0.983288
0.982923
0.982525
0.982089
0.98161
0.981085
0.9805
0.979848
0.979122
0.978305
0.977383
0.976338
0.975155
0.973808
0.972273
0.970522
0.968517
0.966222
0.963596
0.960587
0.957143
0.953193
0.948671
0.943486
0.937536
0.930698
0.922823
0.913718
0.903133
0.89072
0.875966
0.858033
0.835463
0.805335
0.760287
0.678521
0.509112
0.224953
0.917789
0.962898
0.968461
0.970661
0.972183
0.974033
0.976873
0.981042
0.986601
0.993437
0.999757
0.999975
0.999995
0.999999
0.996368
0.988095
0.976247
0.962432
0.94807
0.934254
0.921777
0.911221
0.903015
0.897398
0.894381
0.89355
0.894174
0.896478
0.900092
0.904644
0.909803
0.915293
0.920896
0.926449
0.931836
0.936981
0.941833
0.946366
0.950566
0.954436
0.957982
0.961217
0.964158
0.966823
0.969228
0.971401
0.97335
0.975099
0.976661
0.978057
0.979301
0.980408
0.981385
0.982252
0.983013
0.983681
0.984266
0.984776
0.985215
0.985595
0.985917
0.986192
0.986422
0.986614
0.986767
0.986891
0.986983
0.987051
0.987097
0.987121
0.987126
0.987114
0.987089
0.987049
0.986995
0.986931
0.986856
0.98677
0.986676
0.986575
0.986467
0.986349
0.986224
0.986092
0.985954
0.985812
0.985657
0.985495
0.985324
0.985144
0.984955
0.984753
0.984544
0.98432
0.984085
0.983837
0.983572
0.983292
0.982992
0.982673
0.98233
0.981962
0.981565
0.981135
0.980664
0.980152
0.979591
0.978974
0.978292
0.977534
0.976694
0.975754
0.974703
0.973524
0.972198
0.970699
0.96901
0.967098
0.964933
0.962479
0.959694
0.956534
0.952944
0.948865
0.944226
0.938941
0.93292
0.926036
0.918148
0.90906
0.898539
0.886232
0.871626
0.853893
0.831587
0.801807
0.757238
0.676195
0.507985
0.225089
0.923984
0.963588
0.968295
0.970057
0.971389
0.97308
0.975955
0.980385
0.986382
0.993476
0.999966
0.999998
1
1
0.995075
0.984289
0.969386
0.952494
0.9353
0.919
0.904418
0.892185
0.882835
0.876737
0.873909
0.87295
0.874572
0.878252
0.883414
0.889525
0.896152
0.902962
0.909728
0.916293
0.922557
0.928465
0.933978
0.939095
0.943806
0.948132
0.952084
0.955686
0.958955
0.961917
0.964592
0.967009
0.969186
0.971142
0.972896
0.974468
0.975873
0.977129
0.978246
0.97924
0.980121
0.9809
0.981587
0.982191
0.98272
0.983181
0.98358
0.983924
0.984218
0.984468
0.984676
0.984846
0.984984
0.985094
0.985175
0.98523
0.985265
0.985278
0.985274
0.985252
0.985212
0.985162
0.985097
0.985019
0.984928
0.98483
0.98472
0.984599
0.984469
0.984333
0.984185
0.98403
0.983864
0.983687
0.983498
0.9833
0.983088
0.982865
0.98263
0.982378
0.982114
0.981831
0.981531
0.981211
0.980871
0.980505
0.980112
0.97969
0.979233
0.978737
0.978198
0.977612
0.976971
0.976268
0.975492
0.974638
0.973691
0.97264
0.971471
0.970167
0.96871
0.96708
0.965254
0.963202
0.960893
0.958302
0.955381
0.95209
0.948377
0.944189
0.939452
0.934089
0.928009
0.921086
0.913187
0.904125
0.893659
0.881441
0.866972
0.849422
0.827351
0.797876
0.753702
0.673185
0.505854
0.2243
0.928617
0.963928
0.967882
0.969223
0.970297
0.97179
0.974684
0.979391
0.985885
0.993511
1
0.999999
0.999998
0.999999
0.993477
0.9797
0.961325
0.941086
0.920904
0.902012
0.885198
0.871108
0.860465
0.853961
0.851635
0.851521
0.85461
0.860105
0.867177
0.875104
0.883346
0.891539
0.89946
0.906981
0.914043
0.920613
0.926693
0.93229
0.937421
0.942114
0.946393
0.950287
0.953822
0.957025
0.959921
0.962541
0.964903
0.967028
0.968943
0.970665
0.972205
0.973588
0.974825
0.975929
0.976911
0.977786
0.978563
0.979249
0.979856
0.980388
0.980852
0.981254
0.981604
0.981904
0.982156
0.98237
0.982544
0.982686
0.982795
0.982876
0.982932
0.982962
0.982973
0.982963
0.982935
0.982889
0.982825
0.982751
0.982659
0.982556
0.982439
0.982313
0.982173
0.982024
0.981862
0.981691
0.981506
0.981309
0.9811
0.980879
0.980644
0.980392
0.980127
0.979846
0.979546
0.979228
0.978888
0.978529
0.978143
0.977728
0.977286
0.976806
0.97629
0.975734
0.975127
0.974468
0.973751
0.972962
0.972102
0.971154
0.970108
0.968955
0.967677
0.966261
0.964688
0.962938
0.960989
0.958815
0.956387
0.953674
0.950637
0.947236
0.943421
0.93914
0.934326
0.928898
0.922771
0.915826
0.907925
0.898888
0.888473
0.87635
0.862009
0.844632
0.822786
0.793594
0.749753
0.669623
0.502922
0.222783
0.93199
0.963979
0.967249
0.96814
0.96889
0.970142
0.973025
0.97802
0.985079
0.993386
1
1
0.999998
0.999997
0.991555
0.974269
0.952038
0.928265
0.905039
0.883535
0.864376
0.848149
0.835852
0.82899
0.826215
0.828053
0.834098
0.842702
0.852509
0.862628
0.872551
0.882024
0.890914
0.899182
0.906829
0.913869
0.920331
0.926252
0.931662
0.936598
0.941096
0.945184
0.948897
0.952263
0.955317
0.958078
0.960572
0.962828
0.96486
0.966692
0.96834
0.969821
0.97115
0.972341
0.973408
0.974356
0.975203
0.975956
0.976624
0.977212
0.977728
0.978179
0.978572
0.97891
0.979201
0.979445
0.979647
0.979811
0.979943
0.980041
0.980113
0.980154
0.980172
0.980166
0.980141
0.980095
0.98003
0.97995
0.979852
0.97974
0.979612
0.97947
0.979316
0.979147
0.978968
0.978777
0.978569
0.978349
0.978114
0.977863
0.977599
0.977318
0.97702
0.976702
0.976366
0.976007
0.975629
0.975223
0.974789
0.974327
0.97383
0.973298
0.972721
0.972101
0.971428
0.9707
0.969906
0.969041
0.968097
0.967061
0.965927
0.964677
0.963301
0.961785
0.960109
0.958254
0.956198
0.953918
0.951387
0.948572
0.945436
0.941947
0.938049
0.933694
0.928816
0.923341
0.917181
0.91022
0.902325
0.893321
0.882971
0.870944
0.856732
0.839529
0.817905
0.788989
0.74545
0.665602
0.499339
0.220688
0.934289
0.963781
0.966402
0.966727
0.967005
0.968109
0.970943
0.976229
0.98392
0.993069
0.999997
0.999997
0.999998
0.999996
0.989284
0.967941
0.941524
0.914168
0.888011
0.864039
0.842504
0.823724
0.80889
0.801377
0.798906
0.805134
0.816411
0.829337
0.842119
0.854132
0.865247
0.875482
0.88488
0.893494
0.901384
0.908603
0.915203
0.921235
0.926741
0.931761
0.936337
0.940507
0.944296
0.947737
0.950861
0.953699
0.956268
0.958592
0.960694
0.962593
0.964306
0.965851
0.967241
0.96849
0.969612
0.970615
0.971512
0.97231
0.97302
0.973649
0.974202
0.974686
0.97511
0.975475
0.975786
0.976053
0.976272
0.976451
0.976594
0.976699
0.976775
0.976821
0.976838
0.976831
0.976801
0.97675
0.976674
0.976582
0.976472
0.976343
0.976199
0.976037
0.975862
0.975672
0.975468
0.97525
0.975015
0.974765
0.974501
0.974218
0.973919
0.973603
0.973266
0.972912
0.972536
0.972137
0.971711
0.971259
0.970778
0.970263
0.969713
0.969122
0.968488
0.967807
0.967068
0.966272
0.965407
0.964466
0.963444
0.962329
0.961111
0.959776
0.958313
0.956706
0.954938
0.952991
0.950843
0.948474
0.945851
0.942955
0.939742
0.936176
0.932213
0.927801
0.922877
0.917368
0.911183
0.904224
0.89635
0.88739
0.877114
0.865194
0.851129
0.834107
0.81272
0.784084
0.740834
0.661189
0.495221
0.218127
0.935623
0.963378
0.965387
0.965044
0.964688
0.965682
0.968399
0.973963
0.982354
0.99255
1
1
0.999998
1
0.986641
0.960657
0.929824
0.899053
0.870361
0.844404
0.820777
0.799126
0.77984
0.76494
0.771067
0.791841
0.810641
0.825198
0.838581
0.85094
0.86238
0.872534
0.881793
0.890238
0.897959
0.905022
0.911482
0.917389
0.92279
0.927724
0.932234
0.936345
0.9401
0.943513
0.946623
0.949451
0.952023
0.954357
0.956474
0.958393
0.960125
0.961692
0.963107
0.964382
0.965529
0.966557
0.967477
0.968301
0.969031
0.96968
0.970252
0.970753
0.971189
0.971566
0.971889
0.97216
0.972385
0.972567
0.97271
0.972815
0.972887
0.972925
0.972934
0.972916
0.972874
0.972804
0.972714
0.972604
0.972472
0.972322
0.972154
0.971966