/*--------------------------------*- C++ -*----------------------------------*\
  =========                 |
  \\      /  F ield         | OpenFOAM: The Open Source CFD Toolbox
   \\    /   O peration     | Website:  https://openfoam.org
    \\  /    A nd           | Version:  13
     \\/     M anipulation  |
\*---------------------------------------------------------------------------*/
FoamFile
{
    format      ascii;
    class       volScalarField;
    location    "49.831886";
    object      T;
}
// * * * * * * * * * * * * * * * * * * * * * * * * * * * * * * * * * * * * * //

dimensions      [0 0 0 1 0 0 0];

internalField   nonuniform List<scalar> 
5712
(
670.852
670.4
669.645
668.949
667.806
667.103
665.23
664.662
665.715
665.052
667.735
667.064
669.198
668.561
670.29
669.807
667.268
666.376
666.066
664.832
664.142
662.993
663.043
661.585
672.485
675.168
671.999
674.502
671.351
673.916
670.594
673.012
668.766
670.158
667.494
669.253
672.371
670.879
664.567
662.36
663.372
661.73
661.727
659.876
660.305
658.901
667.253
664.947
665.931
664.189
669.386
667.149
678.239
680.05
676.957
678.833
676.973
679.25
675.47
677.555
675.127
678.212
672.835
675.685
671.073
673.886
669.077
671.932
666.634
666.243
664.716
664.538
662.489
661.98
660.978
660.467
668.32
668.891
670.59
670.715
663.096
663.122
661.631
661.945
659.611
659.192
658.324
658.099
666.467
667.379
664.828
666.158
671.856
675.297
673.217
677.105
674.32
677.859
675.135
679.183
669.83
673.167
671.643
675.449
668.045
671.326
670.405
674.148
682.573
686.571
683.23
687.209
681.394
685.107
682.595
686.386
679.392
682.234
681.51
684.626
669.368
664.454
673.826
677.192
680.832
665.129
670.321
675.632
679.231
683.182
663.889
668.516
673.005
677.261
681.428
690.266
692.04
692.33
693.913
688.4
690.442
691.073
692.784
685.159
687.449
688.921
690.962
666.239
668.06
671.917
674.421
677.151
679.761
681.342
683.934
686.918
689.533
664.707
666.178
669.891
672.51
674.767
677.764
679.631
682.88
685.778
689.215
667.542
670.493
665.423
668.04
662.455
663.27
660.57
661.007
670.586
674.091
672.659
676.379
663.622
666.251
662.464
664.973
659.05
659.462
657.96
658.253
668.696
672.272
667.526
671.02
676.476
680.747
683.787
688.992
678.142
682.621
684.891
689.995
674.936
679.075
682.724
687.848
673.479
677.659
681.19
686.041
692.519
693.239
694.682
692.91
693.148
694.457
691.324
692.234
693.767
692.01
692.324
693.737
688.856
690.084
691.804
690.644
691.166
692.757
670.301
672.871
675.623
677.08
679.318
681.745
682.221
684.135
686.266
685.924
687.514
689.549
689.571
690.328
692.195
668.247
671.122
674.231
675.987
678.996
682.078
681.289
683.929
686.683
685.581
687.531
689.954
689.536
690.537
692.693
658.594
657.67
657.779
656.592
661.096
659.951
660.155
658.741
658.043
656.108
657.818
656.016
657.504
655.775
657.107
655.485
655.808
656.588
655.318
656.232
655.438
654.796
655.667
654.59
657.611
656.405
655.279
654.262
654.568
653.594
654.417
653.42
654.165
652.46
654.489
652.882
653.929
652.168
654.011
652.381
653.71
651.784
653.278
651.517
652.949
651.395
652.096
650.81
656.424
655.608
655.372
654.453
659.052
658.339
657.81
657.035
653.671
652.578
654.588
653.59
654.34
653.453
653.31
652.569
656.632
655.91
655.49
654.921
652.766
651.697
651.828
650.914
652.246
650.722
651.346
650.434
652.984
651.353
652.228
651.173
651.511
650.161
650.571
649.794
650.696
649.558
649.889
649.239
654.211
655.019
652.63
653.479
654.194
655.05
652.514
653.397
654.166
654.939
652.327
653.12
657.182
660.292
655.235
653.712
652.095
660.907
657.826
656
654.504
652.795
659.717
656.692
654.532
653.081
651.904
656.434
658.389
654.913
656.812
656.33
658.194
654.685
656.509
656.054
657.816
654.246
655.947
661.708
663.211
658.443
659.971
656.579
658.15
655.164
656.764
653.558
655.163
660.208
661.077
657.106
657.983
655.009
656.063
653.664
654.962
652.639
654.256
655.404
655.685
654.22
654.165
658.225
658.413
656.799
656.554
652.562
652.932
653.579
654.228
653.31
652.995
652.433
652.027
655.69
655.194
654.702
654.096
651.745
651.887
650.962
651.023
651.539
652.355
651.067
652.369
652.47
653.527
651.794
653.278
650.779
651.386
650.44
651.573
650.137
650.661
649.878
650.862
661.055
663.709
666.217
660.089
663.086
665.602
660.696
663.383
665.949
659.654
662.673
665.298
660.166
662.803
665.41
658.948
662.11
664.913
665.25
667.808
670.581
662.058
664.709
667.542
660.272
663.039
665.919
659.015
661.771
664.555
658.179
661.506
664.561
662.691
665.456
668.596
659.681
662.501
665.652
658.011
661
664.245
657.258
660.405
663.678
657.414
660.903
664.262
651.764
652.938
656.011
661.669
652.26
653.519
656.698
662.41
651.548
652.768
655.85
661.562
651.867
653.206
656.414
662.143
651.262
652.549
655.503
661.045
651.142
652.583
655.735
661.397
651.232
652.831
656.209
662.014
650.913
652.697
656.212
662.06
650.594
652.124
655.202
660.811
650.685
652.321
655.139
660.184
651.067
652.442
655.226
660.432
651.215
652.69
655.31
660.063
650.21
651.893
655.213
661.027
650.224
652.001
654.983
660.146
649.817
651.65
655.086
660.871
649.82
651.722
654.793
659.932
651.85
652.898
655.692
661.015
652.547
653.436
655.822
660.472
651.789
652.869
655.625
660.916
652.517
653.446
655.819
660.427
651.702
652.847
655.514
660.651
652.37
653.393
655.771
660.323
651.676
652.908
655.442
660.278
652.231
653.356
655.706
660.131
651.742
653.069
655.49
659.918
653.625
654.374
656.524
659.832
654.837
655.498
657.693
660.788
653.49
654.3
656.466
659.769
654.697
655.429
657.652
660.758
653.246
654.172
656.389
659.715
654.452
655.311
657.59
660.704
652.892
653.976
656.242
659.584
654.118
655.14
657.487
660.627
652.432
653.719
656.065
659.44
653.727
654.943
657.378
660.551
651.55
653.221
655.824
659.328
652.717
654.362
657.013
660.303
651.983
653.472
655.951
659.394
653.22
654.655
657.197
660.423
651.159
652.987
655.708
659.275
652.253
654.087
656.846
660.172
650.785
652.746
655.546
659.143
651.828
653.819
656.67
660.032
670.324
677.325
683.305
688.183
691.946
670.756
677.68
683.645
688.519
692.279
670.275
677.299
683.289
688.171
691.935
670.68
677.63
683.607
688.486
692.248
670.179
677.257
683.261
688.149
691.915
670.369
677.362
683.355
688.242
692.009
670.541
677.543
683.545
688.437
692.206
670.44
677.469
683.489
688.392
692.165
670.118
677.222
683.24
688.134
691.903
670.47
677.734
683.775
688.67
692.438
670.196
677.347
683.366
688.257
692.024
670.58
677.852
683.887
688.779
692.544
670.113
677.223
683.25
688.149
691.922
670.51
677.79
683.839
688.74
692.509
670.008
677.152
683.197
688.107
691.884
670.485
677.798
683.863
688.771
692.544
670.372
677.488
683.485
688.363
692.125
670.882
678.104
684.108
688.982
692.74
670.361
677.499
683.503
688.384
692.147
670.869
678.104
684.114
688.99
692.748
670.37
677.552
683.567
688.452
692.216
670.874
678.133
684.15
689.03
692.789
670.522
677.775
683.803
688.69
692.455
670.961
678.241
684.265
689.148
692.909
670.827
678.107
684.137
689.024
692.787
700.948
702.109
700.439
701.624
699.512
700.826
698.339
699.873
697.179
698.95
695.366
697.42
696.297
698.302
694.442
696.424
693.473
695.278
713.829
728.005
739.996
749.396
755.882
713.619
727.896
740.024
749.485
756.08
713.6
727.884
739.919
749.339
755.832
713.416
727.811
739.949
749.465
756.045
713.141
727.626
739.749
749.21
755.721
712.973
727.563
739.785
749.343
755.939
712.522
727.256
739.498
749.021
755.558
712.407
727.225
739.558
749.171
755.792
711.802
726.786
739.17
748.771
755.343
711.797
726.827
739.278
748.956
755.605
710.245
725.626
738.293
748.067
754.713
710.4
725.791
738.496
748.32
755.021
711.026
726.222
738.753
748.443
755.054
711.138
726.353
738.932
748.681
755.356
709.459
725.013
737.81
747.669
754.352
709.561
725.135
737.975
747.886
754.623
708.651
724.374
737.304
747.251
753.976
708.638
724.43
737.403
747.411
754.209
655.838
657.619
659.125
657.087
659.623
659.356
659.283
658.92
659.883
659.384
662.26
661.671
663.488
662.824
661.697
661.144
660.99
660.611
660.841
660.547
657.138
656.613
661.633
663.68
664.354
664.536
662.658
662.021
664.426
661.513
666.475
669.596
661.972
662.917
665.318
662.59
663.689
663.847
659.997
659.719
660.967
660.48
659.909
659.379
659.917
660.68
663.363
662.838
661.893
661.37
657.971
657.214
658.41
657.786
658.549
658.793
660.1
661.869
660.077
653.936
652.289
651.581
651.647
652.512
654.257
652.897
652.291
652.5
653.62
660.067
659.335
659.259
659.882
661.236
662.171
661.504
661.492
662.163
663.541
662.823
662.127
662.083
662.728
664.09
663.031
662.365
662.353
663.024
664.4
661.11
660.396
660.338
660.973
662.332
658.516
656.385
655.26
655.017
655.63
660.691
658.392
657.2
656.953
657.669
659.044
657.451
656.596
656.626
657.655
663.025
660.819
659.717
659.57
660.46
666.224
663.962
662.844
662.687
663.581
660.033
658.897
658.434
658.761
659.956
660.647
659.207
658.484
658.619
659.711
663.119
661.733
661.052
661.219
662.327
660.787
659.787
659.448
659.866
661.109
661.77
660.648
660.198
660.534
661.732
662.079
661.113
660.803
661.242
662.494
656.8
654.987
654.063
653.958
654.701
657.549
656.215
655.578
655.765
656.879
659.13
658.098
657.73
658.126
659.36
658.729
657.791
657.512
657.977
659.247
658.014
656.929
656.514
656.873
658.087
657.594
656.622
656.313
656.755
658.014
658.257
657.421
657.245
657.79
659.105
659.032
658.206
658.035
658.584
659.9
661.73
660.915
660.752
661.304
662.616
661.253
660.495
660.389
660.987
662.326
660.176
659.27
659.02
659.506
660.786
659.709
658.867
658.679
659.214
660.521
654.868
653.178
652.41
652.427
653.239
655.012
653.727
653.167
653.412
654.557
655.858
654.36
653.619
653.687
654.625
655.834
654.718
654.284
654.629
655.834
656.708
655.686
655.332
655.738
656.978
656.67
655.39
654.795
655.01
656.139
658.424
657.57
657.374
657.903
659.21
660.277
659.514
659.405
660.002
661.341
658.352
657.443
657.193
657.68
658.963
657.101
658.048
657.182
658.231
654.747
655.846
654.702
655.675
657.272
657.399
658.286
658.087
654.78
654.838
655.796
655.499
659.585
662.012
660.43
662.759
659.598
661.799
660.595
662.752
660.648
659.762
660.141
659.557
661.471
662.36
659.532
660.598
659.067
660.248
657.125
658.251
656.469
657.569
661.855
663.004
661.161
662.489
663.619
665.017
664.229
666.138
664.868
666.683
664.08
666.357
664.916
666.928
663.696
666.8
664.262
667.008
665.429
668.243
667.047
669.923
658.161
658.781
658.646
659.358
655.048
655.246
655.57
655.744
661.595
663.402
661.165
662.798
659.426
660.056
660.433
660.922
656.329
656.382
657.256
657.158
662.387
664.131
663.486
665.076
664.653
668.095
667.594
671.518
664.377
668.094
667.08
671.223
665.415
668.704
668.303
672.114
666.584
669.829
669.291
673.034
664.425
665.59
666.56
668.399
664.254
665.208
666.889
668.651
663.929
664.44
667.477
668.93
658.038
654.821
661.19
664.565
668.847
654.716
657.775
660.924
664.484
669.609
654.983
658.441
662.422
666.775
671.266
667.464
668.277
673.203
674.862
666.59
667.405
672.855
674.512
665.292
665.959
672.433
674.1
654.771
655.192
658.036
658.55
661.449
661.974
665.566
666.254
672.969
674.757
654.983
655.41
658.79
659.879
663.125
664.526
668.157
669.853
674.962
677.141
659.678
661.589
660.187
662.145
655.342
655.471
655.773
655.785
665.088
667.931
664.454
667.145
660.619
662.876
661.478
663.891
656.29
656.43
657.05
657.272
665.533
668.732
666.49
669.886
670.959
674.67
678.45
683.18
669.985
673.58
677.1
681.52
671.698
675.547
679.589
684.469
672.385
676.493
680.191
684.983
668.541
669.22
673.68
673.726
667.701
668.456
673.46
673.43
666.453
667.563
673.235
673.254
656.081
657.674
659.521
661.02
662.822
664.114
666.931
668.139
673.628
673.534
656.289
657.999
661.357
662.925
665.818
666.971
670.319
670.782
674.95
674.499
650.842
650.77
651.828
651.41
652.592
652.522
653.631
653.194
649.607
648.724
650.534
649.619
649.639
648.82
650.644
649.763
650.482
649.624
650.363
649.719
649.008
649.819
652.331
653.429
654.105
655.181
651.68
652.932
651.309
652.419
650.98
652.121
648.191
647.84
649.06
648.66
648.206
647.771
649.118
648.604
648.279
647.687
648.969
648.272
650.013
649.2
651.019
650.01
650.455
650.377
650.921
650.704
652.441
652.398
652.942
652.813
649.572
649.278
649.15
649.017
651.601
651.194
652.409
651.808
653.66
653.381
654.519
654.071
650.214
649.698
650.977
650.242
648.606
647.932
648.459
648.098
648.227
647.687
648.249
647.955
649.21
648.389
648.817
648.371
649.922
648.954
649.297
648.758
647.81
647.956
647.52
647.765
647.891
648.05
647.53
647.799
648.069
648.201
647.586
647.827
650.274
652.224
648.999
648.147
647.715
652.239
650.371
649.119
648.273
647.885
652.182
650.243
648.937
648.205
647.961
648.573
649.653
648.504
649.667
648.574
649.582
648.448
649.562
648.598
649.493
648.365
649.386
652.239
652.648
650.372
650.887
649.228
649.881
648.503
649.268
648.296
649.223
652.058
652.196
650.154
650.371
648.959
649.384
648.362
649.031
648.313
649.235
650.085
649.965
650.463
650.142
652.076
651.784
652.531
651.989
649.234
649.308
648.925
649.158
651.071
650.597
651.688
651.241
653.188
652.498
653.874
653.217
649.746
649.715
650.296
650.309
648.629
649.121
648.665
649.559
648.396
649.016
648.442
649.399
649.012
649.452
648.989
649.896
649.526
650.001
649.397
650.321
650.975
652.214
651.36
652.823
650.813
652.143
651.227
652.775
650.666
652.131
651.02
652.812
653.534
655.136
651.869
653.512
650.923
652.582
650.419
652.124
650.865
652.973
652.897
654.743
651.21
653.144
650.449
652.478
650.365
652.483
651.053
653.439
648.563
650.782
654.541
660.676
649.32
651.534
655.337
661.485
648.513
650.721
654.465
660.644
649.239
651.429
655.198
661.323
648.474
650.665
654.223
660.204
648.93
651.084
654.699
660.696
649.746
651.823
655.511
661.537
650.374
652.33
655.958
661.883
648.677
650.82
654.291
660.175
649.047
651.204
654.34
659.592
648.559
650.744
654.053
659.636
648.97
651.168
654.25
659.315
648.989
651.06
654.623
660.603
649.219
651.313
654.481
659.755
649.394
651.361
654.881
660.723
649.48
651.489
654.621
659.796
648.314
650.528
654.078
659.918
648.657
650.858
654.067
659.252
648.36
650.57
654.066
659.87
648.73
650.933
654.113
659.251
648.475
650.679
654.046
659.68
648.822
651.03
654.171
659.232
648.701
650.907
654.08
659.373
648.952
651.166
654.225
659.133
649.02
651.236
654.232
659.052
649.466
651.658
654.68
658.434
650.529
652.72
655.79
659.287
649.461
651.66
654.672
658.412
650.528
652.729
655.799
659.296
649.476
651.686
654.704
658.448
650.546
652.764
655.839
659.319
649.497
651.723
654.71
658.442
650.567
652.808
655.876
659.35
649.548
651.79
654.732
658.431
650.618
652.887
655.945
659.407
649.88
652.091
655.016
658.676
650.843
653.104
656.123
659.583
649.682
651.922
654.864
658.549
650.687
652.967
656.01
659.467
650.142
652.296
655.206
658.857
651.111
653.316
656.299
659.726
650.445
652.514
655.376
659.001
651.45
653.564
656.489
659.883
669.734
676.962
683.078
688.03
691.826
670.192
677.331
683.426
688.371
692.163
669.736
676.969
683.081
688.031
691.826
670.187
677.326
683.415
688.356
692.147
669.703
676.966
683.079
688.026
691.819
669.96
677.11
683.196
688.135
691.925
670.256
677.367
683.434
688.362
692.147
670.332
677.402
683.447
688.363
692.143
669.749
676.997
683.098
688.038
691.828
670.143
677.537
683.651
688.587
692.372
669.761
677.083
683.201
688.145
691.936
670.19
677.617
683.741
688.68
692.466
669.858
677.066
683.151
688.083
691.87
670.286
677.655
683.754
688.683
692.464
669.919
677.098
683.163
688.084
691.866
670.407
677.751
683.833
688.751
692.528
669.754
677.112
683.25
688.205
692.001
670.243
677.72
683.869
688.822
692.614
669.78
677.147
683.283
688.236
692.03
670.259
677.739
683.886
688.837
692.628
669.847
677.236
683.37
688.32
692.112
670.318
677.8
683.943
688.89
692.68
670.055
677.494
683.627
688.573
692.362
670.47
677.947
684.082
689.025
692.812
670.397
677.848
683.976
688.916
692.701
685.408
686.738
685.59
686.95
686.009
687.405
686.679
688.047
687.76
688.945
690.521
692.068
689.286
690.632
691.579
693.283
692.531
694.259
702.459
719.836
733.864
744.491
751.572
702.073
719.631
733.842
744.549
751.755
702.627
719.956
733.951
744.558
751.627
702.294
719.803
733.936
744.662
751.83
702.971
720.195
734.122
744.689
751.74
702.628
720.032
734.098
744.785
751.935
703.506
720.563
734.387
744.897
751.92
703.122
720.366
734.337
744.972
752.097
704.268
721.077
734.764
745.197
752.183
703.759
720.791
734.646
745.216
752.312
706.095
722.354
735.715
745.955
752.838
705.761
722.153
735.643
745.992
752.963
705.168
721.681
735.208
745.552
752.493
704.676
721.388
735.08
745.555
752.599
706.973
723.031
736.239
746.377
753.203
706.792
722.931
736.232
746.457
753.357
707.829
723.715
736.779
746.819
753.592
707.736
723.706
736.825
746.937
753.788
654.434
656.119
654.924
653.164
650.879
651.825
650.862
651.943
652.612
653.733
652.608
653.57
671.306
671.009
670.265
669.082
667.488
665.57
671.429
671.147
670.439
669.331
667.875
666.166
672.073
673.219
671.737
672.835
670.9
671.887
669.557
670.338
667.759
668.358
665.674
666.319
663.517
661.579
659.924
658.57
657.562
656.824
664.347
662.585
661.008
659.686
658.663
657.943
669.901
669.346
669.442
670.194
671.601
669.601
669.042
669.136
669.884
671.291
668.85
668.284
668.371
669.115
670.521
667.656
667.078
667.154
667.89
669.294
666.043
665.447
665.504
666.228
667.627
664.099
663.473
663.502
664.204
665.595
670.023
669.466
669.56
670.31
671.717
669.737
669.176
669.267
670.014
671.42
669.022
668.454
668.537
669.279
670.683
667.902
667.321
667.393
668.126
669.527
666.428
665.828
665.881
666.6
667.997
664.693
664.064
664.089
664.789
666.177
670.671
670.118
670.215
670.967
672.373
671.821
671.269
671.367
672.118
673.521
670.332
669.775
669.869
670.618
672.024
671.433
670.878
670.972
671.72
673.123
669.488
668.924
669.012
669.757
671.161
670.477
669.914
670.002
670.745
672.148
668.132
667.556
667.632
668.369
669.772
668.915
668.338
668.413
669.147
670.547
666.316
665.719
665.777
666.5
667.899
666.913
666.313
666.366
667.085
668.48
664.202
663.576
663.604
664.306
665.696
664.844
664.213
664.235
664.931
666.317
662.006
661.336
661.322
661.992
663.369
660.012
659.279
659.203
659.826
661.18
658.276
657.456
657.295
657.853
659.175
656.809
655.874
655.606
656.081
657.361
655.669
654.617
654.25
654.65
655.889
654.841
653.722
653.304
653.667
654.885
662.837
662.168
662.154
662.824
664.199
661.028
660.305
660.238
660.867
662.223
659.388
658.597
658.464
659.043
660.375
657.994
657.126
656.921
657.444
658.748
656.9
655.964
655.696
656.174
657.454
656.139
655.166
654.867
655.322
656.591
671.151
670.543
669.486
667.99
666.078
663.836
671.274
670.684
669.668
668.256
666.506
664.524
671.911
673.05
671.251
672.325
670.089
671.033
668.413
669.129
666.28
666.799
663.822
664.327
661.484
659.349
657.667
656.573
656.166
656.319
662.489
660.62
659.102
658.064
657.562
657.552
669.746
669.191
669.289
670.041
671.449
669.136
668.579
668.675
669.426
670.836
668.073
667.511
667.603
668.353
669.763
666.567
665.996
666.08
666.826
668.236
664.64
664.055
664.126
664.863
666.272
662.376
661.769
661.819
662.542
663.947
669.869
669.312
669.408
670.159
671.566
669.275
668.717
668.81
669.56
670.968
668.254
667.69
667.779
668.526
669.935
666.832
666.258
666.339
667.081
668.489
665.066
664.477
664.544
665.277
666.683
663.062
662.451
662.496
663.214
664.616
670.51
669.957
670.055
670.808
672.215
671.651
671.1
671.199
671.95
673.355
669.847
669.292
669.389
670.141
671.549
670.923
670.37
670.467
671.218
672.624
668.678
668.118
668.211
668.961
670.37
669.625
669.066
669.159
669.907
671.314
666.992
666.423
666.508
667.254
668.663
667.71
667.141
667.225
667.969
669.377
664.843
664.26
664.332
665.07
666.479
665.362
664.777
664.847
665.583
666.99
662.364
661.758
661.81
662.535
663.941
662.869
662.262
662.313
663.035
664.439
659.992
659.35
659.368
660.068
661.464
657.811
657.118
657.087
657.749
659.13
656.059
655.291
655.188
655.795
657.149
654.858
653.982
653.777
654.307
655.62
654.312
653.311
652.996
653.441
654.707
654.352
653.254
652.857
653.238
654.466
660.996
660.351
660.365
661.06
662.452
659.085
658.394
658.363
659.024
660.401
657.51
656.757
656.666
657.281
658.637
656.4
655.571
655.408
655.968
657.295
655.822
654.915
654.68
655.185
656.483
655.757
654.795
654.509
654.974
656.249
656.264
655.93
659.071
661.472
661.606
662.174
659.972
654.815
655.492
655.014
657.047
656.677
656.379
657.848
658.159
659.054
654.646
654.718
656.38
656.541
655.531
655.813
657.107
657.416
659.564
659.572
657.771
657.758
655.412
655.334
654.577
655.156
655.373
654.691
656.933
658.838
656.505
653.117
651.548
650.896
651.01
651.923
653.606
652.284
651.715
651.955
653.096
657.541
656.859
656.839
657.511
658.896
659.986
659.351
659.376
660.081
661.481
660.111
659.464
659.477
660.171
661.565
660.694
660.064
660.094
660.802
662.202
658.461
657.8
657.799
658.485
659.876
652.048
650.626
650.047
650.229
651.145
652.81
651.448
650.929
651.172
652.171
652.993
651.865
651.443
651.807
653.027
654.653
653.439
653.026
653.365
654.521
654.975
654.113
653.923
654.465
655.784
654.528
653.538
653.236
653.693
654.965
656.219
655.428
655.301
655.89
657.233
656.496
655.669
655.507
656.069
657.397
657.451
656.685
656.581
657.186
658.536
651.93
650.541
649.985
650.186
651.137
652.804
651.757
651.402
651.816
653.064
654.709
653.878
653.715
654.278
655.609
654.906
654.111
653.983
654.572
655.918
653.799
652.91
652.696
653.219
654.529
654.132
653.29
653.118
653.674
655.002
655.504
654.744
654.648
655.262
656.62
655.838
655.103
655.031
655.663
657.03
658.014
657.306
657.258
657.906
659.279
658.043
657.36
657.338
658.007
659.391
656.173
655.416
655.322
655.937
657.294
656.183
655.45
655.38
656.013
657.38
652.471
651.001
650.398
650.555
651.497
653.21
652.021
651.556
651.881
653.077
652.253
651.005
650.496
650.76
651.829
653.293
652.287
651.967
652.406
653.67
653.628
652.726
652.497
653.009
654.314
652.757
651.692
651.316
651.712
652.951
655.329
654.567
654.47
655.083
656.441
657.3
656.609
656.579
657.243
658.624
654.874
654.085
653.962
654.555
655.902
657.221
655.916
655.396
655.613
656.502
658.227
656.795
656.908
654.391
654.342
657.023
657.228
654.464
654.573
659.385
662.091
659.408
661.845
659.66
659.526
661.402
656.731
656.856
654.297
654.235
656.982
657.185
654.39
654.54
659.537
662.401
659.55
662.08
659.785
659.582
661.603
656.771
656.906
654.277
654.198
657.04
657.251
654.392
654.546
659.678
663.145
659.692
662.721
659.924
659.704
662.138
657.256
657.386
654.701
654.618
657.529
657.774
654.819
654.995
660.352
664.013
660.333
663.556
660.526
660.268
662.854
658.106
658.228
655.556
655.475
658.365
658.653
655.669
655.839
661.219
664.64
661.182
664.274
661.333
661.133
663.589
659.628
659.738
657.123
657.047
659.842
660.079
657.229
657.375
662.57
665.73
662.505
665.384
662.624
662.411
664.691
650.511
650.497
652.237
652.23
650.535
650.564
652.274
652.33
649.26
648.31
649.32
648.456
649.337
649.495
648.743
650.394
650.4
652.133
652.108
650.469
650.536
652.197
652.263
649.089
648.306
649.183
648.485
649.266
649.479
648.787
650.341
650.374
652.093
652.048
650.482
650.583
652.189
652.295
649.172
648.645
649.289
648.805
649.431
649.65
649.084
650.762
650.812
652.507
652.451
650.944
651.085
652.617
652.723
649.702
649.421
649.838
649.569
650.033
650.294
649.833
651.659
651.717
653.381
653.322
651.881
652.076
653.49
653.608
650.701
650.563
650.848
650.68
651.068
651.356
650.9
653.302
653.361
654.986
654.928
653.525
653.692
655.095
655.204
652.361
652.054
652.501
652.182
652.683
652.927
652.406
670.934
670.506
669.663
668.965
667.82
667.115
665.239
664.671
665.725
665.062
667.75
667.078
669.217
668.579
670.391
669.931
667.278
666.382
666.074
664.837
664.149
662.998
663.049
661.59
672.547
675.212
672.083
674.569
671.366
673.927
670.606
673.019
668.774
670.167
667.5
669.259
672.38
670.886
664.572
662.364
663.376
661.733
661.732
659.879
660.308
658.904
667.258
664.951
665.936
664.192
669.391
667.153
678.28
680.089
677.018
678.894
676.98
679.256
675.475
677.559
675.133
678.217
672.841
675.69
671.077
673.889
669.08
671.935
666.638
666.246
664.72
664.541
662.493
661.983
660.981
660.47
668.324
668.894
670.594
670.719
663.099
663.125
661.633
661.947
659.613
659.194
658.326
658.101
666.471
667.382
664.831
666.16
671.86
675.301
673.22
677.108
674.324
677.863
675.138
679.186
669.833
673.17
671.645
675.451
668.047
671.329
670.407
674.15
682.623
686.625
683.265
687.244
681.397
685.108
682.601
686.391
679.396
682.237
681.514
684.629
669.371
664.457
673.83
677.195
680.836
665.131
670.324
675.634
679.234
683.185
663.891
668.519
673.008
677.264
681.431
690.323
692.097
692.363
693.943
688.4
690.441
691.075
692.785
685.16
687.449
688.923
690.964
666.241
668.062
671.919
674.423
677.154
679.763
681.344
683.935
686.92
689.534
664.71
666.18
669.894
672.512
674.77
677.767
679.634
682.882
685.78
689.217
667.544
670.496
665.426
668.043
662.457
663.272
660.572
661.008
670.589
674.094
672.662
676.381
663.624
666.253
662.466
664.974
659.052
659.463
657.961
658.254
668.699
672.274
667.528
671.022
676.479
680.749
683.789
688.995
678.145
682.623
684.893
689.998
674.938
679.077
682.726
687.85
673.481
677.661
681.192
686.042
692.57
693.284
694.724
692.942
693.177
694.484
691.322
692.234
693.767
692.011
692.327
693.741
688.857
690.085
691.805
690.645
691.168
692.759
670.302
672.872
675.624
677.081
679.319
681.747
682.222
684.136
686.268
685.925
687.515
689.55
689.573
690.33
692.197
668.249
671.124
674.233
675.989
678.997
682.079
681.291
683.931
686.685
685.583
687.533
689.955
689.537
690.539
692.695
658.597
657.672
657.781
656.594
661.1
659.954
660.159
658.744
658.073
656.14
657.862
656.061
657.505
655.776
657.106
655.484
655.809
656.589
655.32
656.234
655.439
654.796
655.669
654.591
657.614
656.407
655.281
654.263
654.57
653.595
654.418
653.421
654.191
652.477
654.528
652.913
653.93
652.17
654.011
652.382
653.711
651.785
653.279
651.517
652.95
651.395
652.097
650.811
656.426
655.61
655.374
654.455
659.055
658.342
657.813
657.037
653.672
652.58
654.589
653.591
654.342
653.455
653.312
652.57
656.635
655.912
655.492
654.923
652.768
651.698
651.829
650.916
652.248
650.723
651.347
650.435
652.985
651.354
652.229
651.174
651.512
650.162
650.572
649.795
650.697
649.559
649.89
649.24
654.226
655.028
652.639
653.483
654.195
655.051
652.516
653.398
654.167
654.94
652.328
653.121
657.183
660.294
655.237
653.713
652.096
660.909
657.827
656.001
654.505
652.796
659.719
656.694
654.533
653.082
651.905
656.44
658.399
654.914
656.815
656.33
658.194
654.686
656.51
656.055
657.816
654.247
655.949
661.71
663.212
658.445
659.972
656.58
658.151
655.165
656.765
653.559
655.165
660.209
661.079
657.108
657.985
655.01
656.065
653.665
654.963
652.64
654.258
655.406
655.686
654.222
654.167
658.227
658.415
656.801
656.555
652.564
652.934
653.581
654.229
653.312
652.996
652.434
652.028
655.692
655.196
654.703
654.097
651.747
651.888
650.963
651.024
651.541
652.357
651.068
652.37
652.471
653.528
651.795
653.279
650.78
651.388
650.441
651.574
650.138
650.662
649.879
650.863
661.067
663.723
666.231
660.093
663.093
665.61
660.696
663.383
665.949
659.656
662.674
665.299
660.167
662.804
665.41
658.949
662.112
664.914
665.252
667.809
670.582
662.059
664.71
667.543
660.274
663.04
665.92
659.016
661.772
664.556
658.18
661.507
664.562
662.693
665.457
668.598
659.682
662.502
665.653
658.013
661.002
664.246
657.259
660.406
663.679
657.415
660.904
664.264
651.776
652.948
656.022
661.683
652.284
653.54
656.719
662.432
651.549
652.768
655.85
661.562
651.867
653.206
656.413
662.141
651.263
652.549
655.503
661.044
651.143
652.583
655.735
661.396
651.232
652.831
656.208
662.013
650.914
652.697
656.212
662.059
650.594
652.124
655.202
660.811
650.686
652.321
655.139
660.184
651.067
652.442
655.226
660.432
651.215
652.691
655.31
660.063
650.21
651.893
655.212
661.027
650.225
652.001
654.983
660.146
649.817
651.65
655.085
660.871
649.821
651.723
654.793
659.932
651.854
652.901
655.697
661.024
652.547
653.434
655.822
660.476
651.79
652.87
655.626
660.915
652.518
653.446
655.819
660.426
651.703
652.848
655.514
660.651
652.371
653.393
655.772
660.323
651.677
652.908
655.442
660.278
652.232
653.356
655.706
660.13
651.743
653.07
655.49
659.917
653.621
654.368
656.519
659.833
654.833
655.491
657.686
660.782
653.491
654.301
656.467
659.77
654.698
655.43
657.653
660.759
653.247
654.172
656.39
659.716
654.453
655.312
657.59
660.704
652.893
653.977
656.243
659.584
654.119
655.141
657.488
660.628
652.433
653.72
656.065
659.44
653.728
654.943
657.378
660.551
651.55
653.221
655.825
659.328
652.718
654.363
657.014
660.303
651.984
653.473
655.951
659.394
653.221
654.656
657.197
660.423
651.16
652.988
655.708
659.275
652.253
654.087
656.847
660.172
650.786
652.746
655.546
659.143
651.828
653.819
656.67
660.032
670.329
677.326
683.306
688.184
691.946
670.769
677.691
683.654
688.528
692.288
670.274
677.299
683.288
688.17
691.934
670.677
677.628
683.604
688.483
692.245
670.179
677.256
683.26
688.148
691.914
670.368
677.361
683.353
688.24
692.007
670.54
677.542
683.543
688.436
692.204
670.439
677.468
683.488
688.39
692.164
670.117
677.221
683.239
688.132
691.902
670.469
677.734
683.774
688.669
692.436
670.195
677.346
683.365
688.256
692.023
670.58
677.851
683.887
688.778
692.543
670.112
677.222
683.248
688.148
691.92
670.509
677.789
683.838
688.739
692.508
670.007
677.151
683.196
688.106
691.883
670.484
677.797
683.862
688.77
692.543
670.371
677.483
683.48
688.358
692.12
670.876
678.096
684.1
688.974
692.732
670.362
677.5
683.503
688.384
692.147
670.87
678.105
684.114
688.991
692.749
670.37
677.552
683.567
688.452
692.216
670.874
678.133
684.15
689.03
692.789
670.521
677.774
683.802
688.69
692.454
670.961
678.241
684.265
689.148
692.908
670.827
678.106
684.136
689.023
692.786
700.975
702.13
700.44
701.627
699.513
700.828
698.341
699.875
697.181
698.951
695.368
697.422
696.299
698.304
694.443
696.426
693.475
695.28
713.843
728.014
740.003
749.401
755.887
713.627
727.899
740.024
749.485
756.079
713.601
727.885
739.92
749.339
755.832
713.418
727.813
739.95
749.467
756.046
713.143
727.627
739.749
749.211
755.722
712.975
727.564
739.786
749.344
755.94
712.523
727.257
739.499
749.022
755.559
712.408
727.226
739.559
749.172
755.793
711.803
726.788
739.171
748.772
755.343
711.799
726.828
739.279
748.957
755.606
710.247
725.628
738.294
748.069
754.715
710.401
725.792
738.497
748.321
755.022
711.028
726.223
738.754