/*--------------------------------*- C++ -*----------------------------------*\
  =========                 |
  \\      /  F ield         | OpenFOAM: The Open Source CFD Toolbox
   \\    /   O peration     | Website:  https://openfoam.org
    \\  /    A nd           | Version:  13
     \\/     M anipulation  |
\*---------------------------------------------------------------------------*/
FoamFile
{
    format      ascii;
    class       volScalarField;
    location    "579.831886";
    object      T;
}
// * * * * * * * * * * * * * * * * * * * * * * * * * * * * * * * * * * * * * //

dimensions      [0 0 0 1 0 0 0];

internalField   nonuniform List<scalar> 
5712
(
303.303
303.314
303.333
303.351
303.378
303.396
303.439
303.454
303.426
303.443
303.378
303.395
303.342
303.358
303.315
303.328
303.393
303.417
303.424
303.457
303.468
303.498
303.496
303.535
303.265
303.202
303.277
303.218
303.294
303.233
303.313
303.255
303.36
303.325
303.392
303.348
303.272
303.309
303.462
303.519
303.494
303.537
303.53
303.579
303.568
303.605
303.398
303.457
303.432
303.477
303.346
303.403
303.129
303.085
303.159
303.114
303.161
303.106
303.197
303.146
303.207
303.133
303.263
303.194
303.307
303.238
303.357
303.287
303.412
303.423
303.461
303.467
303.511
303.524
303.55
303.563
303.375
303.363
303.318
303.317
303.503
303.503
303.541
303.534
303.586
303.597
303.62
303.626
303.422
303.402
303.464
303.434
303.29
303.207
303.261
303.168
303.229
303.144
303.213
303.117
303.34
303.259
303.301
303.21
303.386
303.305
303.332
303.242
303.026
302.931
303.01
302.917
303.055
302.967
303.026
302.937
303.104
303.036
303.054
302.98
303.343
303.459
303.238
303.159
303.073
303.441
303.319
303.193
303.109
303.016
303.474
303.365
303.259
303.16
303.062
302.844
302.799
302.798
302.759
302.888
302.837
302.828
302.786
302.965
302.907
302.88
302.829
303.412
303.363
303.278
303.214
303.155
303.089
303.057
302.992
302.929
302.865
303.452
303.412
303.33
303.263
303.216
303.14
303.102
303.022
302.961
302.877
303.39
303.316
303.444
303.378
303.51
303.486
303.559
303.543
303.322
303.237
303.27
303.179
303.49
303.424
303.52
303.457
303.598
303.583
303.627
303.615
303.37
303.283
303.4
303.315
303.185
303.083
303.015
302.893
303.142
303.035
302.986
302.866
303.224
303.125
303.043
302.923
303.26
303.161
303.081
302.967
302.782
302.759
302.722
302.774
302.762
302.728
302.81
302.783
302.743
302.796
302.782
302.744
302.868
302.833
302.789
302.828
302.809
302.767
303.304
303.236
303.166
303.144
303.085
303.022
303.024
302.972
302.917
302.939
302.894
302.842
302.855
302.829
302.779
303.356
303.281
303.2
303.173
303.094
303.015
303.049
302.979
302.908
302.949
302.895
302.831
302.857
302.824
302.767
303.6
303.624
303.622
303.653
303.54
303.57
303.565
303.602
303.608
303.655
303.614
303.658
303.623
303.665
303.634
303.673
303.669
303.648
303.683
303.658
303.675
303.693
303.678
303.707
303.632
303.665
303.684
303.712
303.704
303.73
303.704
303.731
303.703
303.746
303.695
303.735
303.71
303.754
303.709
303.748
303.718
303.765
303.73
303.772
303.74
303.776
303.763
303.792
303.655
303.676
303.684
303.707
303.593
303.611
303.626
303.645
303.724
303.752
303.699
303.724
303.712
303.734
303.74
303.758
303.658
303.675
303.688
303.702
303.749
303.776
303.775
303.797
303.758
303.794
303.781
303.801
303.737
303.776
303.757
303.781
303.779
303.809
303.802
303.819
303.801
303.826
303.82
303.834
303.699
303.676
303.74
303.717
303.701
303.676
303.744
303.719
303.703
303.681
303.749
303.727
303.632
303.558
303.679
303.716
303.756
303.541
303.615
303.658
303.694
303.737
303.573
303.646
303.698
303.733
303.761
303.638
303.586
303.678
303.627
303.641
303.591
303.684
303.636
303.65
303.603
303.697
303.651
303.519
303.478
303.597
303.555
303.642
303.599
303.676
303.632
303.716
303.673
303.559
303.534
303.633
303.608
303.684
303.654
303.717
303.681
303.741
303.697
303.679
303.668
303.711
303.708
303.611
303.602
303.649
303.65
303.75
303.737
303.722
303.702
303.735
303.739
303.759
303.765
303.678
303.686
303.705
303.715
303.772
303.765
303.793
303.788
303.774
303.749
303.783
303.747
303.749
303.718
303.763
303.723
303.794
303.775
303.8
303.768
303.812
303.795
303.815
303.788
303.515
303.445
303.379
303.54
303.461
303.395
303.525
303.454
303.387
303.552
303.472
303.404
303.54
303.47
303.402
303.571
303.488
303.414
303.424
303.356
303.284
303.499
303.43
303.356
303.542
303.469
303.393
303.572
303.499
303.426
303.592
303.504
303.424
303.489
303.415
303.333
303.561
303.486
303.403
303.601
303.521
303.436
303.619
303.535
303.448
303.613
303.52
303.432
303.762
303.729
303.649
303.503
303.748
303.714
303.63
303.484
303.767
303.734
303.653
303.506
303.759
303.722
303.638
303.491
303.775
303.74
303.662
303.519
303.779
303.739
303.656
303.51
303.777
303.733
303.644
303.495
303.786
303.737
303.644
303.494
303.794
303.751
303.67
303.525
303.791
303.746
303.671
303.541
303.781
303.743
303.669
303.535
303.777
303.736
303.666
303.544
303.804
303.758
303.67
303.52
303.804
303.755
303.676
303.542
303.815
303.765
303.674
303.525
303.815
303.762
303.681
303.548
303.759
303.73
303.656
303.519
303.74
303.715
303.652
303.532
303.761
303.731
303.658
303.522
303.741
303.715
303.652
303.534
303.763
303.731
303.661
303.529
303.745
303.716
303.654
303.536
303.764
303.73
303.663
303.538
303.749
303.717
303.655
303.541
303.762
303.725
303.661
303.547
303.711
303.69
303.633
303.547
303.678
303.659
303.601
303.52
303.714
303.692
303.634
303.548
303.682
303.661
303.602
303.521
303.721
303.695
303.637
303.55
303.688
303.664
303.604
303.523
303.731
303.701
303.641
303.553
303.698
303.669
303.607
303.525
303.743
303.708
303.645
303.557
303.708
303.675
303.61
303.527
303.767
303.721
303.652
303.561
303.735
303.69
303.62
303.534
303.756
303.714
303.649
303.559
303.722
303.682
303.615
303.53
303.778
303.728
303.655
303.562
303.748
303.698
303.625
303.537
303.788
303.734
303.66
303.566
303.76
303.705
303.629
303.541
303.285
303.109
302.961
302.841
302.75
303.273
303.1
302.953
302.833
302.742
303.286
303.11
302.962
302.842
302.75
303.275
303.102
302.954
302.834
302.742
303.288
303.111
302.962
302.842
302.75
303.284
303.109
302.96
302.84
302.748
303.279
303.104
302.955
302.835
302.744
303.282
303.106
302.957
302.836
302.745
303.29
303.112
302.963
302.843
302.751
303.281
303.099
302.95
302.83
302.738
303.288
303.109
302.96
302.84
302.748
303.278
303.096
302.947
302.827
302.735
303.29
303.112
302.963
302.842
302.75
303.28
303.098
302.948
302.828
302.736
303.293
303.114
302.964
302.843
302.751
303.281
303.098
302.948
302.827
302.735
303.283
303.105
302.957
302.837
302.745
303.27
303.09
302.941
302.822
302.731
303.284
303.105
302.956
302.836
302.745
303.27
303.09
302.941
302.822
302.73
303.283
303.104
302.955
302.835
302.743
303.27
303.089
302.94
302.821
302.729
303.279
303.098
302.949
302.829
302.737
303.268
303.086
302.937
302.818
302.727
303.272
303.09
302.941
302.821
302.73
302.606
302.579
302.619
302.591
302.642
302.611
302.671
302.635
302.701
302.659
302.75
302.702
302.725
302.678
302.773
302.728
302.798
302.756
302.324
302.018
301.763
301.567
301.434
302.328
302.02
301.763
301.565
301.43
302.329
302.021
301.765
301.568
301.435
302.333
302.022
301.764
301.566
301.431
302.341
302.027
301.769
301.571
301.438
302.344
302.028
301.768
301.569
301.434
302.356
302.036
301.775
301.576
301.442
302.358
302.037
301.774
301.573
301.437
302.375
302.048
301.783
301.582
301.447
302.374
302.047
301.781
301.578
301.441
302.415
302.077
301.804
301.598
301.461
302.41
302.073
301.8
301.593
301.455
302.395
302.062
301.793
301.589
301.453
302.391
302.058
301.789
301.584
301.447
302.434
302.092
301.816
301.607
301.469
302.432
302.089
301.812
301.603
301.464
302.454
302.107
301.828
301.617
301.478
302.454
302.106
301.826
301.614
301.473
303.675
303.633
303.593
303.641
303.57
303.577
303.58
303.59
303.566
303.58
303.51
303.525
303.478
303.496
303.521
303.535
303.537
303.547
303.539
303.547
303.635
303.642
303.492
303.435
303.419
303.412
303.464
303.509
303.446
303.514
303.391
303.31
303.494
303.474
303.411
303.475
303.449
303.441
303.559
303.557
303.518
303.529
303.547
303.559
303.541
303.52
303.45
303.461
303.491
303.503
303.612
303.624
303.596
303.605
303.582
303.581
303.536
303.487
303.539
303.714
303.754
303.77
303.766
303.742
303.702
303.735
303.749
303.742
303.71
303.532
303.551
303.553
303.536
303.5
303.474
303.491
303.491
303.473
303.437
303.459
303.477
303.477
303.46
303.424
303.452
303.469
303.469
303.451
303.415
303.504
303.523
303.524
303.507
303.471
303.595
303.647
303.673
303.677
303.659
303.538
303.593
303.621
303.625
303.605
303.576
303.615
303.635
303.632
303.604
303.475
303.528
303.554
303.556
303.531
303.392
303.446
303.472
303.474
303.449
303.544
303.572
303.582
303.573
303.54
303.532
303.567
303.584
303.579
303.549
303.466
303.5
303.516
303.51
303.48
303.521
303.546
303.554
303.542
303.508
303.497
303.525
303.536
303.526
303.493
303.486
303.511
303.518
303.505
303.472
303.639
303.683
303.704
303.705
303.683
303.613
303.646
303.66
303.654
303.623
303.566
303.592
303.6
303.588
303.555
303.574
303.598
303.604
303.591
303.557
303.596
303.623
303.633
303.622
303.589
303.605
303.63
303.637
303.624
303.59
303.584
303.605
303.609
303.594
303.559
303.563
303.584
303.588
303.573
303.538
303.492
303.513
303.516
303.501
303.466
303.502
303.522
303.524
303.508
303.472
303.535
303.558
303.564
303.55
303.516
303.546
303.567
303.571
303.557
303.522
303.689
303.73
303.748
303.745
303.722
303.68
303.712
303.725
303.716
303.685
303.661
303.697
303.714
303.71
303.684
303.655
303.683
303.693
303.682
303.649
303.63
303.656
303.664
303.652
303.618
303.635
303.667
303.681
303.673
303.642
303.58
303.602
303.606
303.591
303.556
303.528
303.548
303.55
303.534
303.498
303.583
303.607
303.612
303.598
303.564
303.659
303.633
303.657
303.628
303.715
303.686
303.717
303.69
303.654
303.651
303.627
303.633
303.714
303.713
303.687
303.695
303.598
303.539
303.575
303.518
303.598
303.544
303.571
303.518
303.57
303.594
303.583
303.599
303.552
303.528
303.594
303.565
303.607
303.575
303.652
303.622
303.669
303.64
303.538
303.507
303.556
303.521
303.495
303.458
303.484
303.436
303.466
303.42
303.488
303.431
303.465
303.414
303.498
303.422
303.482
303.414
303.451
303.381
303.409
303.338
303.632
303.617
303.619
303.602
303.707
303.701
303.693
303.688
303.548
303.505
303.56
303.521
303.599
303.583
303.572
303.561
303.673
303.671
303.648
303.651
303.527
303.486
303.499
303.462
303.474
303.389
303.405
303.31
303.483
303.392
303.418
303.319
303.454
303.373
303.386
303.294
303.423
303.343
303.361
303.271
303.482
303.456
303.429
303.387
303.486
303.465
303.421
303.382
303.495
303.483
303.408
303.375
303.636
303.713
303.561
303.479
303.376
303.715
303.642
303.567
303.482
303.359
303.708
303.625
303.53
303.426
303.319
303.412
303.391
303.277
303.236
303.433
303.412
303.284
303.244
303.463
303.446
303.294
303.253
303.713
303.701
303.636
303.622
303.554
303.54
303.456
303.438
303.281
303.237
303.707
303.694
303.617
303.588
303.513
303.478
303.394
303.352
303.234
303.181
303.594
303.546
303.58
303.531
303.697
303.691
303.685
303.681
303.464
303.394
303.481
303.415
303.568
303.511
303.546
303.485
303.671
303.663
303.651
303.641
303.452
303.374
303.427
303.344
303.325
303.237
303.15
303.039
303.35
303.264
303.183
303.079
303.306
303.215
303.122
303.008
303.288
303.19
303.106
302.994
303.382
303.363
303.259
303.254
303.402
303.38
303.264
303.261
303.431
303.401
303.268
303.263
303.676
303.633
303.595
303.554
303.517
303.481
303.419
303.385
303.258
303.255
303.669
303.622
303.549
303.506
303.443
303.41
303.336
303.319
303.225
303.229
303.809
303.81
303.782
303.793
303.767
303.768
303.739
303.75
303.838
303.858
303.812
303.833
303.837
303.856
303.809
303.829
303.814
303.837
303.817
303.835
303.851
303.829
303.768
303.739
303.726
303.697
303.781
303.748
303.792
303.762
303.797
303.766
303.869
303.874
303.845
303.852
303.869
303.876
303.843
303.853
303.868
303.879
303.849
303.862
303.82
303.837
303.793
303.814
303.817
303.818
303.804
303.808
303.769
303.769
303.756
303.758
303.836
303.842
303.848
303.849
303.786
303.795
303.764
303.778
303.737
303.743
303.714
303.724
303.819
303.83
303.798
303.815
303.858
303.871
303.86
303.866
303.869
303.878
303.866
303.87
303.842
303.859
303.85
303.858
303.822
303.843
303.837
303.847
303.879
303.876
303.883
303.877
303.878
303.874
303.883
303.876
303.873
303.87
303.881
303.875
303.821
303.775
303.852
303.871
303.878
303.774
303.819
303.849
303.868
303.873
303.775
303.821
303.852
303.868
303.87
303.859
303.83
303.857
303.826
303.859
303.832
303.859
303.829
303.859
303.835
303.861
303.833
303.774
303.762
303.819
303.804
303.845
303.827
303.861
303.84
303.862
303.837
303.777
303.772
303.823
303.815
303.85
303.837
303.863
303.844
303.86
303.835
303.823
303.823
303.812
303.817
303.776
303.78
303.763
303.772
303.841
303.835
303.85
303.841
303.796
303.804
303.779
303.786
303.745
303.758
303.727
303.738
303.827
303.824
303.812
303.807
303.853
303.838
303.849
303.824
303.86
303.842
303.856
303.829
303.842
303.828
303.84
303.814
303.828
303.813
303.829
303.802
303.794
303.761
303.781
303.741
303.799
303.763
303.784
303.742
303.803
303.763
303.789
303.741
303.737
303.693
303.777
303.732
303.799
303.753
303.809
303.762
303.793
303.735
303.751
303.7
303.79
303.738
303.807
303.752
303.807
303.749
303.786
303.722
303.851
303.789
303.69
303.531
303.83
303.769
303.668
303.51
303.852
303.791
303.692
303.531
303.832
303.772
303.672
303.514
303.853
303.792
303.698
303.543
303.841
303.781
303.685
303.53
303.818
303.761
303.663
303.508
303.801
303.747
303.651
303.499
303.847
303.788
303.696
303.543
303.837
303.777
303.693
303.557
303.851
303.79
303.702
303.557
303.839
303.778
303.696
303.564
303.838
303.781
303.687
303.532
303.832
303.774
303.69
303.553
303.827
303.773
303.68
303.529
303.824
303.769
303.686
303.552
303.858
303.796
303.702
303.55
303.849
303.787
303.701
303.566
303.857
303.795
303.702
303.551
303.847
303.785
303.7
303.566
303.853
303.792
303.702
303.556
303.844
303.782
303.698
303.567
303.847
303.786
303.701
303.563
303.84
303.779
303.697
303.569
303.838
303.776
303.696
303.571
303.827
303.765
303.684
303.586
303.798
303.737
303.654
303.562
303.827
303.765
303.684
303.586
303.798
303.736
303.654
303.561
303.826
303.764
303.684
303.585
303.797
303.735
303.653
303.561
303.825
303.763
303.683
303.585
303.796
303.734
303.652
303.56
303.823
303.761
303.683
303.585
303.794
303.731
303.65
303.558
303.813
303.753
303.675
303.579
303.787
303.725
303.645
303.553
303.819
303.757
303.679
303.582
303.792
303.729
303.648
303.557
303.806
303.747
303.669
303.574
303.78
303.719
303.64
303.549
303.798
303.741
303.665
303.57
303.77
303.712
303.635
303.545
303.301
303.119
302.967
302.845
302.753
303.289
303.11
302.959
302.837
302.745
303.301
303.119
302.967
302.845
302.753
303.289
303.11
302.959
302.837
302.745
303.302
303.119
302.967
302.845
302.753
303.295
303.116
302.964
302.843
302.75
303.287
303.109
302.958
302.837
302.745
303.285
303.108
302.958
302.837
302.745
303.3
303.118
302.967
302.845
302.753
303.29
303.105
302.953
302.832
302.74
303.3
303.116
302.964
302.843
302.75
303.289
303.103
302.951
302.83
302.737
303.297
303.117
302.965
302.844
302.752
303.286
303.102
302.95
302.829
302.737
303.296
303.116
302.965
302.844
302.752
303.283
303.099
302.948
302.828
302.736
303.3
303.116
302.963
302.841
302.749
303.288
303.1
302.948
302.826
302.734
303.3
303.115
302.962
302.84
302.748
303.287
303.1
302.947
302.826
302.734
303.298
303.112
302.96
302.838
302.746
303.286
303.098
302.946
302.824
302.732
303.292
303.106
302.954
302.832
302.74
303.282
303.094
302.942
302.821
302.729
303.284
303.097
302.945
302.824
302.732
302.992
302.961
302.988
302.956
302.978
302.946
302.962
302.93
302.936
302.909
302.87
302.835
302.9
302.869
302.845
302.806
302.821
302.782
302.602
302.214
301.907
301.679
301.531
302.611
302.219
301.908
301.678
301.527
302.598
302.211
301.905
301.678
301.53
302.606
302.215
301.906
301.676
301.526
302.59
302.206
301.901
301.675
301.527
302.598
302.209
301.902
301.673
301.523
302.578
302.197
301.895
301.67
301.523
302.586
302.201
301.896
301.669
301.52
302.56
302.185
301.887
301.664
301.518
302.571
302.192
301.889
301.663
301.515
302.516
302.155
301.865
301.646
301.503
302.524
302.16
301.866
301.646
301.501
302.538
302.171
301.876
301.656
301.511
302.55
302.178
301.879
301.656
301.509
302.495
302.139
301.853
301.637
301.495
302.499
302.142
301.853
301.635
301.492
302.475
302.123
301.84
301.627
301.486
302.476
302.123
301.839
301.625
301.482
303.712
303.673
303.704
303.746
303.808
303.782
303.808
303.779
303.767
303.736
303.767
303.741
303.226
303.234
303.254
303.286
303.33
303.382
303.223
303.231
303.25
303.28
303.32
303.367
303.206
303.177
303.215
303.187
303.238
303.213
303.274
303.255
303.323
303.308
303.38
303.364
303.439
303.493
303.54
303.58
303.61
303.631
303.417
303.466
303.511
303.548
303.578
303.598
303.262
303.276
303.273
303.254
303.218
303.27
303.284
303.282
303.263
303.227
303.291
303.305
303.303
303.284
303.248
303.323
303.338
303.336
303.317
303.281
303.367
303.382
303.381
303.362
303.326
303.421
303.437
303.436
303.417
303.381
303.259
303.273
303.271
303.252
303.216
303.267
303.281
303.279
303.26
303.224
303.287
303.301
303.299
303.28
303.244
303.317
303.332
303.33
303.311
303.275
303.357
303.373
303.371
303.353
303.316
303.405
303.421
303.42
303.402
303.366
303.242
303.256
303.253
303.234
303.198
303.212
303.226
303.224
303.205
303.169
303.251
303.265
303.263
303.244
303.208
303.223
303.237
303.234
303.215
303.18
303.274
303.288
303.286
303.267
303.231
303.249
303.263
303.261
303.242
303.206
303.311
303.326
303.324
303.305
303.268
303.291
303.306
303.304
303.285
303.249
303.36
303.376
303.374
303.355
303.319
303.345
303.361
303.359
303.341
303.305
303.418
303.434
303.433
303.415
303.379
303.402
303.418
303.417
303.399
303.363
303.478
303.496
303.496
303.478
303.441
303.534
303.553
303.554
303.537
303.501
303.583
303.604
303.607
303.592
303.557
303.625
303.649
303.655
303.641
303.607
303.659
303.685
303.693
303.681
303.647
303.682
303.71
303.72
303.709
303.675
303.456
303.473
303.473
303.456
303.42
303.507
303.525
303.526
303.509
303.474
303.553
303.573
303.576
303.56
303.524
303.592
303.614
303.619
303.604
303.569
303.624
303.647
303.653
303.639
303.605
303.645
303.67
303.676
303.663
303.628
303.23
303.246
303.275
303.315
303.367
303.428
303.227
303.243
303.27
303.309
303.356
303.41
303.21
303.181
303.228
303.201
303.259
303.235
303.304
303.286
303.362
303.349
303.429
303.416
303.493
303.552
303.6
303.633
303.647
303.645
303.466
303.518
303.561
303.591
303.607
303.609
303.266
303.28
303.277
303.258
303.222
303.282
303.297
303.294
303.275
303.239
303.311
303.325
303.323
303.304
303.267
303.352
303.366
303.364
303.345
303.309
303.404
303.419
303.417
303.398
303.361
303.466
303.482
303.48
303.461
303.424
303.263
303.277
303.275
303.256
303.22
303.279
303.293
303.291
303.272
303.236
303.307
303.321
303.319
303.3
303.263
303.345
303.36
303.358
303.339
303.302
303.393
303.409
303.407
303.388
303.351
303.448
303.464
303.463
303.444
303.407
303.246
303.26
303.258
303.238
303.202
303.217
303.231
303.228
303.209
303.173
303.264
303.278
303.275
303.256
303.22
303.236
303.25
303.248
303.229
303.193
303.295
303.31
303.307
303.288
303.252
303.271
303.285
303.283
303.264
303.228
303.341
303.355
303.353
303.334
303.298
303.323
303.337
303.335
303.316
303.28
303.399
303.414
303.412
303.393
303.356
303.386
303.401
303.399
303.38
303.344
303.467
303.482
303.481
303.462
303.425
303.454
303.47
303.468
303.449
303.412
303.532
303.548
303.548
303.529
303.492
303.593
303.61
303.611
303.593
303.556
303.642
303.662
303.664
303.647
303.611
303.678
303.7
303.704
303.689
303.653
303.695
303.72
303.727
303.714
303.679
303.695
303.723
303.732
303.72
303.686
303.505
303.522
303.521
303.503
303.466
303.558
303.576
303.576
303.559
303.522
303.603
303.622
303.624
303.607
303.57
303.635
303.656
303.659
303.644
303.608
303.652
303.675
303.68
303.666
303.631
303.655
303.679
303.686
303.672
303.637
303.658
303.66
303.559
303.493
303.491
303.475
303.535
303.699
303.681
303.685
303.636
303.633
303.645
303.599
303.592
303.566
303.701
303.689
303.639
303.633
303.663
303.653
303.615
303.607
303.549
303.547
303.599
303.598
303.68
303.674
303.698
303.675
303.666
303.69
303.62
303.567
303.633
303.736
303.774
303.789
303.783
303.758
303.719
303.752
303.765
303.756
303.725
303.6
303.617
303.617
303.599
303.562
303.532
303.548
303.547
303.529
303.491
303.53
303.547
303.546
303.528
303.491
303.513
303.53
303.528
303.51
303.473
303.575
303.592
303.591
303.573
303.536
303.768
303.802
303.814
303.807
303.781
303.748
303.78
303.791
303.782
303.754
303.737
303.765
303.774
303.762
303.728
303.696
303.725
303.733
303.722
303.69
303.677
303.699
303.703
303.687
303.651
303.693
303.718
303.724
303.71
303.675
303.641
303.662
303.664
303.647
303.611
303.635
303.656
303.659
303.644
303.608
303.608
303.627
303.629
303.612
303.576
303.769
303.802
303.815
303.807
303.78
303.739
303.765
303.773
303.76
303.726
303.683
303.704
303.707
303.691
303.655
303.676
303.696
303.698
303.682
303.645
303.708
303.731
303.735
303.72
303.684
303.697
303.719
303.722
303.706
303.67
303.657
303.677
303.679
303.662
303.625
303.648
303.667
303.668
303.651
303.614
303.59
303.608
303.609
303.591
303.554
303.587
303.605
303.605
303.587
303.55
303.641
303.66
303.662
303.645
303.608
303.639
303.658
303.659
303.642
303.605
303.753
303.789
303.802
303.796
303.769
303.728
303.758
303.768
303.758
303.724
303.757
303.788
303.799
303.79
303.76
303.723
303.748
303.755
303.742
303.707
303.712
303.735
303.74
303.725
303.689
303.74
303.766
303.775
303.762
303.728
303.662
303.682
303.684
303.667
303.63
303.607
303.625
303.625
303.607
303.57
303.676
303.696
303.699
303.682
303.645
303.614
303.649
303.664
303.66
303.637
303.593
303.667
303.665
303.725
303.727
303.661
303.656
303.723
303.72
303.605
303.539
303.604
303.545
303.598
303.601
303.556
303.67
303.666
303.728
303.73
303.663
303.657
303.725
303.72
303.602
303.533
303.601
303.54
303.595
303.6
303.552
303.669
303.666
303.729
303.731
303.662
303.655
303.725
303.72
303.599
303.516
303.598
303.525
303.592
303.597
303.539
303.657
303.653
303.717
303.72
303.649
303.641
303.713
303.708
303.582
303.494
303.582
303.504
303.577
303.582
303.52
303.634
303.631
303.694
303.697
303.626
303.617
303.69
303.684
303.559
303.476
303.559
303.485
303.555
303.558
303.5
303.593
303.59
303.652
303.655
303.586
303.579
303.648
303.643
303.523
303.447
303.524
303.454
303.519
303.523
303.47
303.818
303.818
303.777
303.777
303.817
303.815
303.775
303.773
303.847
303.869
303.846
303.865
303.845
303.841
303.858
303.821
303.821
303.78
303.781
303.819
303.816
303.778
303.775
303.852
303.869
303.849
303.865
303.847
303.841
303.857
303.823
303.822
303.781
303.782
303.818
303.815
303.778
303.774
303.85
303.86
303.847
303.856
303.842
303.836
303.849
303.811
303.81
303.77
303.772
303.806
303.801
303.766
303.762
303.835
303.839
303.832
303.836
303.826
303.819
303.829
303.787
303.785
303.746
303.748
303.78
303.774
303.742
303.737
303.808
303.808
303.804
303.805
303.798
303.79
303.8
303.743
303.74
303.702
303.705
303.735
303.73
303.699
303.694
303.763
303.768
303.759
303.765
303.754
303.747
303.759
303.301
303.312
303.333
303.351
303.378
303.396
303.439
303.454
303.425
303.443
303.377
303.395
303.342
303.358
303.313
303.324
303.393
303.417
303.424
303.456
303.468
303.497
303.496
303.534
303.263
303.2
303.275
303.216
303.293
303.233
303.313
303.255
303.36
303.325
303.392
303.348
303.272
303.309
303.462
303.519
303.494
303.537
303.53
303.579
303.568
303.605
303.398
303.457
303.432
303.477
303.346
303.403
303.128
303.084
303.158
303.112
303.161
303.106
303.196
303.146
303.207
303.133
303.263
303.193
303.307
303.238
303.357
303.287
303.412
303.423
303.461
303.467
303.511
303.524
303.55
303.563
303.375
303.363
303.318
303.317
303.503
303.503
303.541
303.534
303.586
303.597
303.62
303.626
303.422
303.402
303.464
303.434
303.29
303.206
303.261
303.168
303.229
303.144
303.213
303.117
303.34
303.259
303.301
303.209
303.386
303.305
303.332
303.242
303.025
302.93
303.009
302.916
303.055
302.967
303.026
302.937
303.104
303.036
303.054
302.98
303.343
303.459
303.238
303.159
303.073
303.441
303.319
303.193
303.108
303.016
303.474
303.365
303.259
303.16
303.062
302.843
302.798
302.798
302.758
302.888
302.837
302.828
302.786
302.965
302.907
302.88
302.829
303.412
303.363
303.278
303.214
303.155
303.088
303.057
302.992
302.929
302.865
303.452
303.412
303.33
303.263
303.215
303.14
303.102
303.022
302.96
302.877
303.39
303.316
303.444
303.378
303.51
303.486
303.559
303.543
303.322
303.237
303.27
303.179
303.49
303.424
303.52
303.457
303.598
303.583
303.627
303.615
303.37
303.283
303.4
303.315
303.185
303.083
303.015
302.893
303.142
303.035
302.986
302.866
303.224
303.125
303.043
302.923
303.26
303.161
303.081
302.967
302.781
302.758
302.721
302.773
302.762
302.727
302.81
302.783
302.743
302.796
302.782
302.744
302.868
302.833
302.789
302.828
302.809
302.767
303.304
303.236
303.165
303.144
303.085
303.022
303.024
302.972
302.917
302.939
302.894
302.841
302.855
302.829
302.779
303.356
303.28
303.2
303.173
303.094
303.015
303.049
302.979
302.908
302.949
302.895
302.831
302.857
302.824
302.767
303.6
303.624
303.622
303.653
303.54
303.57
303.565
303.602
303.607
303.655
303.613
303.657
303.623
303.665
303.634
303.673
303.669
303.648
303.683
303.658
303.675
303.693
303.678
303.707
303.632
303.665
303.684
303.712
303.704
303.73
303.704
303.731
303.703
303.745
303.694
303.734
303.71
303.754
303.709
303.748
303.718
303.765
303.73
303.772
303.74
303.776
303.763
303.792
303.655
303.676
303.684
303.707
303.593
303.61
303.626
303.645
303.724
303.752
303.699
303.724
303.712
303.734
303.74
303.758
303.658
303.675
303.688
303.702
303.749
303.776
303.775
303.797
303.758
303.794
303.781
303.801
303.737
303.776
303.757
303.781
303.778
303.809
303.802
303.819
303.801
303.826
303.82
303.834
303.699
303.676
303.74
303.717
303.701
303.676
303.744
303.719
303.703
303.681
303.749
303.727
303.632
303.558
303.679
303.716
303.756
303.541
303.615
303.658
303.694
303.737
303.573
303.646
303.698
303.733
303.761
303.638
303.585
303.678
303.627
303.641
303.591
303.684
303.636
303.65
303.603
303.697
303.651
303.519
303.478
303.597
303.555
303.642
303.599
303.676
303.632
303.716
303.673
303.559
303.534
303.633
303.608
303.684
303.654
303.716
303.681
303.741
303.697
303.679
303.668
303.711
303.708
303.611
303.602
303.649
303.65
303.75
303.737
303.722
303.702
303.735
303.739
303.759
303.765
303.678
303.686
303.705
303.715
303.772
303.765
303.793
303.788
303.774
303.749
303.783
303.747
303.748
303.718
303.763
303.723
303.794
303.775
303.8
303.768
303.812
303.795
303.815
303.788
303.515
303.445
303.379
303.54
303.461
303.395
303.525
303.454
303.387
303.552
303.472
303.404
303.54
303.47
303.402
303.571
303.488
303.414
303.424
303.356
303.284
303.499
303.429
303.356
303.542
303.469
303.393
303.572
303.499
303.426
303.592
303.504
303.424
303.489
303.415
303.333
303.561
303.486
303.403
303.601
303.521
303.436
303.619
303.535
303.448
303.613
303.52
303.432
303.761
303.729
303.648
303.503
303.748
303.713
303.63
303.483
303.767
303.734
303.653
303.506
303.759
303.722
303.638
303.491
303.775
303.74
303.662
303.519
303.779
303.739
303.656
303.51
303.777
303.733
303.644
303.495
303.786
303.737
303.644
303.494
303.794
303.751
303.67
303.525
303.791
303.746
303.671
303.541
303.781
303.743
303.669
303.535
303.777
303.736
303.666
303.544
303.804
303.758
303.67
303.52
303.804
303.755
303.676
303.542
303.815
303.765
303.674
303.525
303.815
303.762
303.681
303.548
303.759
303.73
303.656
303.519
303.74
303.715
303.652
303.532
303.761
303.731
303.658
303.522
303.741
303.715
303.652
303.534
303.763
303.731
303.661
303.529
303.745
303.716
303.654
303.536
303.764
303.73
303.663
303.538
303.749
303.717
303.655
303.541
303.762
303.725
303.661
303.547
303.711
303.69
303.633
303.547
303.678
303.659
303.602
303.52
303.714
303.692
303.634
303.548
303.682
303.661
303.602
303.521
303.721
303.695
303.637
303.55
303.688
303.664
303.604
303.523
303.731
303.701
303.641
303.553
303.697
303.669
303.607
303.525
303.743
303.708
303.645
303.557
303.708
303.674
303.61
303.527
303.767
303.721
303.652
303.561
303.735
303.69
303.62
303.534
303.755
303.714
303.649
303.559
303.722
303.682
303.615
303.53
303.778
303.728
303.655
303.562
303.748
303.698
303.625
303.537
303.788
303.734
303.66
303.566
303.76
303.705
303.629
303.541
303.284
303.109
302.961
302.841
302.75
303.273
303.1
302.952
302.833
302.741
303.286
303.11
302.962
302.842
302.75
303.276
303.102
302.954
302.834
302.742
303.288
303.111
302.962
302.842
302.75
303.284
303.109
302.96
302.84
302.748
303.279
303.104
302.955
302.835
302.744
303.282
303.106
302.957
302.836
302.745
303.29
303.112
302.963
302.843
302.751
303.281
303.099
302.95
302.83
302.738
303.288
303.109
302.96
302.84
302.748
303.278
303.096
302.947
302.827
302.735
303.29
303.112
302.963
302.842
302.75
303.28
303.098
302.948
302.828
302.736
303.293
303.114
302.964
302.843
302.751
303.281
303.098
302.948
302.827
302.735
303.283
303.105
302.957
302.837
302.745
303.27
303.09
302.941
302.822
302.731
303.284
303.105
302.956
302.836
302.745
303.27
303.09
302.941
302.822
302.73
303.283
303.104
302.955
302.835
302.743
303.27
303.089
302.94
302.821
302.729
303.28
303.098
302.949
302.829
302.737
303.268
303.086
302.937
302.818
302.727
303.272
303.09
302.941
302.821
302.73
302.605
302.579
302.619
302.591
302.642
302.611
302.671
302.635
302.701
302.659
302.75
302.702
302.725
302.678
302.773
302.727
302.798
302.756
302.323
302.017
301.763
301.567
301.434
302.328
302.02
301.763
301.565
301.43
302.329
302.021
301.765
301.568
301.435
302.333
302.022
301.764
301.566
301.431
302.341
302.027
301.769
301.571
301.438
302.344
302.028
301.768
301.569
301.434
302.356
302.036
301.775
301.576
301.442
302.358
302.037
301.774
301.573
301.437
302.375
302.048
301.783
301.582
301.447
302.374
302.047
301.781
301.578
301.441
302.415
302.077
301.804
301.598
301.461