/*--------------------------------*- C++ -*----------------------------------*\
  =========                 |
  \\      /  F ield         | OpenFOAM: The Open Source CFD Toolbox
   \\    /   O peration     | Website:  https://openfoam.org
    \\  /    A nd           | Version:  13
     \\/     M anipulation  |
\*---------------------------------------------------------------------------*/
FoamFile
{
    format      ascii;
    class       volScalarField;
    location    "239.831886";
    object      T;
}
// * * * * * * * * * * * * * * * * * * * * * * * * * * * * * * * * * * * * * //

dimensions      [0 0 0 1 0 0 0];

internalField   nonuniform List<scalar> 
5712
(
1153.59
1153.5
1153.36
1153.24
1153.03
1152.9
1152.56
1152.45
1152.65
1152.53
1153.02
1152.89
1153.28
1153.17
1153.49
1153.4
1152.93
1152.76
1152.71
1152.48
1152.36
1152.14
1152.15
1151.88
1153.88
1154.37
1153.79
1154.25
1153.67
1154.14
1153.54
1153.98
1153.2
1153.45
1152.96
1153.29
1153.86
1153.58
1152.43
1152.02
1152.21
1151.9
1151.91
1151.57
1151.65
1151.39
1152.92
1152.5
1152.68
1152.36
1153.31
1152.9
1154.93
1155.26
1154.7
1155.04
1154.7
1155.11
1154.42
1154.8
1154.36
1154.92
1153.94
1154.46
1153.62
1154.13
1153.25
1153.77
1152.81
1152.73
1152.45
1152.42
1152.05
1151.96
1151.77
1151.68
1153.11
1153.21
1153.53
1153.55
1152.15
1152.16
1151.88
1151.94
1151.52
1151.44
1151.28
1151.24
1152.77
1152.93
1152.47
1152.71
1153.76
1154.38
1154
1154.7
1154.21
1154.85
1154.35
1155.08
1153.39
1154
1153.71
1154.4
1153.06
1153.66
1153.48
1154.16
1155.72
1156.44
1155.84
1156.55
1155.5
1156.17
1155.72
1156.4
1155.13
1155.65
1155.52
1156.08
1153.31
1152.41
1154.12
1154.73
1155.39
1152.54
1153.48
1154.45
1155.1
1155.82
1152.31
1153.15
1153.97
1154.74
1155.49
1157.11
1157.43
1157.48
1157.77
1156.77
1157.15
1157.25
1157.56
1156.18
1156.6
1156.86
1157.23
1152.74
1153.08
1153.78
1154.24
1154.73
1155.21
1155.49
1155.96
1156.49
1156.97
1152.46
1152.73
1153.4
1153.89
1154.29
1154.84
1155.17
1155.76
1156.28
1156.9
1152.97
1153.51
1152.58
1153.06
1152.04
1152.2
1151.7
1151.78
1153.52
1154.16
1153.9
1154.58
1152.25
1152.73
1152.04
1152.5
1151.41
1151.5
1151.21
1151.27
1153.17
1153.82
1152.96
1153.59
1154.59
1155.36
1155.91
1156.85
1154.89
1155.71
1156.11
1157.03
1154.3
1155.05
1155.71
1156.64
1154.04
1154.79
1155.43
1156.31
1157.53
1157.67
1157.93
1157.6
1157.65
1157.89
1157.31
1157.48
1157.76
1157.44
1157.5
1157.76
1156.87
1157.1
1157.41
1157.19
1157.29
1157.58
1153.5
1153.97
1154.48
1154.73
1155.14
1155.59
1155.66
1156.02
1156.41
1156.33
1156.63
1157
1156.99
1157.14
1157.48
1153.12
1153.65
1154.23
1154.53
1155.08
1155.65
1155.49
1155.98
1156.48
1156.27
1156.63
1157.08
1156.98
1157.17
1157.57
1151.34
1151.17
1151.19
1150.97
1151.8
1151.59
1151.62
1151.36
1151.24
1150.88
1151.2
1150.87
1151.14
1150.82
1151.07
1150.77
1150.82
1150.97
1150.73
1150.9
1150.76
1150.64
1150.79
1150.59
1151.15
1150.93
1150.73
1150.54
1150.59
1150.41
1150.57
1150.38
1150.52
1150.2
1150.58
1150.28
1150.48
1150.15
1150.49
1150.19
1150.44
1150.08
1150.36
1150.03
1150.3
1150.01
1150.14
1149.9
1150.94
1150.79
1150.74
1150.57
1151.42
1151.29
1151.19
1151.05
1150.43
1150.23
1150.6
1150.42
1150.55
1150.39
1150.36
1150.22
1150.97
1150.84
1150.76
1150.65
1150.26
1150.06
1150.08
1149.92
1150.16
1149.88
1150
1149.83
1150.3
1150
1150.16
1149.97
1150.03
1149.77
1149.85
1149.71
1149.88
1149.66
1149.73
1149.6
1150.53
1150.69
1150.24
1150.4
1150.53
1150.69
1150.22
1150.38
1150.52
1150.67
1150.18
1150.33
1151.08
1151.65
1150.72
1150.44
1150.14
1151.77
1151.2
1150.87
1150.59
1150.27
1151.55
1150.99
1150.59
1150.32
1150.1
1150.95
1151.32
1150.67
1151.02
1150.93
1151.28
1150.62
1150.97
1150.88
1151.21
1150.54
1150.86
1151.92
1152.2
1151.32
1151.6
1150.98
1151.27
1150.71
1151.01
1150.41
1150.71
1151.64
1151.8
1151.07
1151.23
1150.68
1150.88
1150.43
1150.68
1150.24
1150.55
1150.75
1150.81
1150.53
1150.53
1151.27
1151.31
1151.01
1150.97
1150.23
1150.3
1150.42
1150.54
1150.36
1150.31
1150.2
1150.13
1150.8
1150.71
1150.62
1150.51
1150.07
1150.11
1149.93
1149.94
1150.04
1150.19
1149.95
1150.19
1150.21
1150.41
1150.08
1150.36
1149.9
1150.01
1149.83
1150.05
1149.78
1149.88
1149.73
1149.91
1151.82
1152.31
1152.77
1151.64
1152.19
1152.66
1151.75
1152.25
1152.73
1151.55
1152.12
1152.6
1151.65
1152.14
1152.62
1151.42
1152.01
1152.53
1152.58
1153.05
1153.56
1151.99
1152.49
1153.01
1151.67
1152.18
1152.72
1151.43
1151.95
1152.47
1151.28
1151.9
1152.47
1152.1
1152.62
1153.2
1151.55
1152.08
1152.66
1151.25
1151.8
1152.41
1151.11
1151.7
1152.3
1151.14
1151.79
1152.41
1150.07
1150.28
1150.83
1151.86
1150.16
1150.38
1150.96
1152
1150.03
1150.24
1150.8
1151.84
1150.09
1150.33
1150.91
1151.95
1149.97
1150.2
1150.74
1151.75
1149.95
1150.21
1150.78
1151.81
1149.97
1150.26
1150.87
1151.93
1149.91
1150.23
1150.87
1151.93
1149.85
1150.12
1150.68
1151.71
1149.87
1150.16
1150.68
1151.59
1149.94
1150.18
1150.69
1151.64
1149.97
1150.23
1150.71
1151.57
1149.78
1150.08
1150.69
1151.75
1149.78
1150.1
1150.65
1151.59
1149.7
1150.04
1150.66
1151.72
1149.71
1150.05
1150.61
1151.55
1150.08
1150.27
1150.78
1151.75
1150.22
1150.37
1150.8
1151.65
1150.07
1150.26
1150.76
1151.73
1150.21
1150.37
1150.8
1151.64
1150.06
1150.26
1150.74
1151.68
1150.18
1150.36
1150.79
1151.62
1150.05
1150.27
1150.73
1151.61
1150.16
1150.36
1150.78
1151.59
1150.07
1150.3
1150.74
1151.55
1150.42
1150.55
1150.93
1151.54
1150.64
1150.76
1151.15
1151.72
1150.39
1150.53
1150.92
1151.53
1150.62
1150.74
1151.15
1151.72
1150.35
1150.51
1150.91
1151.52
1150.57
1150.72
1151.13
1151.71
1150.28
1150.47
1150.88
1151.49
1150.51
1150.69
1151.12
1151.69
1150.19
1150.42
1150.85
1151.47
1150.44
1150.65
1151.1
1151.68
1150.03
1150.33
1150.81
1151.45
1150.25
1150.55
1151.03
1151.63
1150.11
1150.38
1150.83
1151.46
1150.34
1150.6
1151.06
1151.65
1149.96
1150.29
1150.78
1151.44
1150.16
1150.49
1151
1151.61
1149.89
1150.24
1150.75
1151.41
1150.08
1150.44
1150.96
1151.58
1153.43
1154.7
1155.78
1156.66
1157.34
1153.51
1154.77
1155.84
1156.72
1157.4
1153.43
1154.7
1155.78
1156.66
1157.34
1153.5
1154.76
1155.84
1156.72
1157.39
1153.41
1154.69
1155.77
1156.65
1157.33
1153.44
1154.71
1155.79
1156.67
1157.35
1153.47
1154.74
1155.82
1156.71
1157.39
1153.46
1154.73
1155.81
1156.7
1157.38
1153.4
1154.68
1155.77
1156.65
1157.33
1153.46
1154.78
1155.87
1156.75
1157.43
1153.41
1154.71
1155.79
1156.67
1157.35
1153.48
1154.8
1155.89
1156.77
1157.45
1153.4
1154.68
1155.77
1156.65
1157.34
1153.47
1154.79
1155.88
1156.76
1157.44
1153.38
1154.67
1155.76
1156.65
1157.33
1153.46
1154.79
1155.88
1156.77
1157.45
1153.44
1154.73
1155.81
1156.69
1157.37
1153.54
1154.84
1155.93
1156.81
1157.48
1153.44
1154.73
1155.82
1156.7
1157.38
1153.54
1154.84
1155.93
1156.81
1157.48
1153.44
1154.74
1155.83
1156.71
1157.39
1153.54
1154.85
1155.94
1156.81
1157.49
1153.47
1154.78
1155.87
1156.75
1157.43
1153.55
1154.87
1155.96
1156.84
1157.51
1153.53
1154.84
1155.93
1156.81
1157.49
1159.02
1159.23
1158.92
1159.14
1158.75
1158.99
1158.54
1158.81
1158.32
1158.64
1157.99
1158.36
1158.16
1158.52
1157.82
1158.17
1157.64
1157.96
1161.31
1163.81
1165.92
1167.56
1168.68
1161.27
1163.79
1165.92
1167.57
1168.71
1161.26
1163.79
1165.9
1167.55
1168.67
1161.23
1163.78
1165.91
1167.57
1168.7
1161.18
1163.74
1165.87
1167.52
1168.65
1161.15
1163.73
1165.88
1167.54
1168.68
1161.07
1163.67
1165.83
1167.49
1168.62
1161.05
1163.67
1165.84
1167.51
1168.66
1160.93
1163.59
1165.77
1167.44
1168.58
1160.93
1163.6
1165.79
1167.48
1168.62
1160.65
1163.38
1165.61
1167.32
1168.47
1160.68
1163.41
1165.64
1167.36
1168.52
1160.79
1163.49
1165.69
1167.38
1168.53
1160.81
1163.51
1165.72
1167.43
1168.58
1160.5
1163.27
1165.52
1167.25
1168.4
1160.52
1163.29
1165.55
1167.28
1168.45
1160.36
1163.15
1165.43
1167.17
1168.34
1160.36
1163.16
1165.45
1167.2
1168.38
1150.83
1151.15
1151.43
1151.06
1151.53
1151.48
1151.47
1151.4
1151.58
1151.49
1152.01
1151.9
1152.24
1152.12
1151.91
1151.81
1151.78
1151.71
1151.76
1151.7
1151.08
1150.99
1151.93
1152.31
1152.44
1152.47
1152.12
1151.98
1152.42
1151.89
1152.81
1153.38
1151.99
1152.16
1152.6
1152.11
1152.31
1152.34
1151.61
1151.57
1151.8
1151.72
1151.61
1151.51
1151.61
1151.75
1152.25
1152.16
1151.98
1151.88
1151.23
1151.1
1151.32
1151.21
1151.35
1151.39
1151.65
1151.98
1151.64
1150.49
1150.18
1150.05
1150.07
1150.23
1150.55
1150.3
1150.19
1150.23
1150.44
1151.64
1151.51
1151.49
1151.61
1151.86
1152.04
1151.91
1151.91
1152.03
1152.29
1152.16
1152.03
1152.02
1152.14
1152.39
1152.19
1152.07
1152.07
1152.19
1152.45
1151.84
1151.71
1151.69
1151.81
1152.07
1151.33
1150.94
1150.74
1150.69
1150.81
1151.74
1151.32
1151.1
1151.05
1151.19
1151.44
1151.15
1150.99
1151
1151.19
1152.17
1151.77
1151.57
1151.54
1151.71
1152.77
1152.35
1152.15
1152.12
1152.29
1151.63
1151.42
1151.34
1151.4
1151.62
1151.74
1151.47
1151.34
1151.37
1151.57
1152.2
1151.94
1151.82
1151.85
1152.06
1151.77
1151.59
1151.53
1151.6
1151.84
1151.95
1151.75
1151.66
1151.73
1151.95
1152.01
1151.83
1151.78
1151.86
1152.09
1151.02
1150.68
1150.51
1150.5
1150.64
1151.16
1150.92
1150.8
1150.84
1151.05
1151.46
1151.27
1151.21
1151.28
1151.51
1151.39
1151.22
1151.17
1151.25
1151.49
1151.25
1151.05
1150.98
1151.05
1151.27
1151.18
1151
1150.94
1151.03
1151.26
1151.3
1151.15
1151.12
1151.22
1151.46
1151.45
1151.3
1151.27
1151.37
1151.61
1151.95
1151.8
1151.77
1151.87
1152.12
1151.86
1151.72
1151.7
1151.82
1152.06
1151.66
1151.49
1151.45
1151.54
1151.78
1151.57
1151.42
1151.38
1151.48
1151.73
1150.66
1150.35
1150.21
1150.21
1150.36
1150.69
1150.45
1150.35
1150.4
1150.61
1150.85
1150.57
1150.43
1150.45
1150.62
1150.85
1150.64
1150.56
1150.63
1150.85
1151.01
1150.82
1150.76
1150.84
1151.07
1151
1150.76
1150.66
1150.7
1150.91
1151.34
1151.18
1151.14
1151.24
1151.48
1151.68
1151.54
1151.52
1151.63
1151.88
1151.32
1151.15
1151.11
1151.2
1151.44
1151.05
1151.23
1151.06
1151.26
1150.62
1150.82
1150.61
1150.79
1151.08
1151.1
1151.27
1151.23
1150.62
1150.63
1150.81
1150.76
1151.5
1151.95
1151.66
1152.09
1151.51
1151.91
1151.69
1152.09
1151.7
1151.54
1151.61
1151.5
1151.85
1152.02
1151.5
1151.7
1151.41
1151.63
1151.06
1151.27
1150.94
1151.14
1151.92
1152.14
1151.8
1152.04
1152.25
1152.51
1152.36
1152.71
1152.48
1152.81
1152.33
1152.75
1152.48
1152.85
1152.26
1152.83
1152.36
1152.87
1152.58
1153.1
1152.88
1153.4
1151.24
1151.36
1151.33
1151.46
1150.67
1150.71
1150.77
1150.8
1151.87
1152.2
1151.79
1152.09
1151.48
1151.59
1151.66
1151.75
1150.91
1150.92
1151.08
1151.06
1152.02
1152.33
1152.22
1152.51
1152.43
1153.06
1152.96
1153.68
1152.38
1153.06
1152.87
1153.62
1152.57
1153.18
1153.09
1153.79
1152.79
1153.38
1153.28
1153.96
1152.39
1152.6
1152.78
1153.11
1152.36
1152.53
1152.84
1153.16
1152.3
1152.39
1152.95
1153.21
1151.22
1150.63
1151.8
1152.41
1153.19
1150.61
1151.17
1151.75
1152.4
1153.33
1150.66
1151.29
1152.02
1152.81
1153.63
1152.94
1153.09
1153.98
1154.28
1152.78
1152.93
1153.92
1154.22
1152.54
1152.67
1153.84
1154.14
1150.62
1150.7
1151.22
1151.32
1151.84
1151.94
1152.59
1152.72
1153.94
1154.26
1150.66
1150.74
1151.36
1151.56
1152.15
1152.41
1153.06
1153.37
1154.3
1154.69
1151.52
1151.87
1151.61
1151.97
1150.73
1150.76
1150.81
1150.81
1152.51
1153.03
1152.39
1152.88
1151.69
1152.11
1151.85
1152.3
1150.9
1150.93
1151.04
1151.09
1152.59
1153.17
1152.77
1153.38
1153.57
1154.25
1154.93
1155.78
1153.4
1154.05
1154.68
1155.48
1153.71
1154.41
1155.14
1156.02
1153.84
1154.58
1155.25
1156.11
1153.14
1153.27
1154.07
1154.09
1152.99
1153.13
1154.04
1154.03
1152.76
1152.97
1153.99
1154
1150.87
1151.17
1151.5
1151.78
1152.1
1152.34
1152.85
1153.07
1154.07
1154.06
1150.91
1151.23
1151.84
1152.13
1152.65
1152.87
1153.47
1153.56
1154.31
1154.24
1149.9
1149.88
1150.08
1150
1150.22
1150.21
1150.41
1150.33
1149.67
1149.51
1149.84
1149.67
1149.68
1149.52
1149.86
1149.7
1149.83
1149.67
1149.81
1149.69
1149.56
1149.71
1150.17
1150.38
1150.5
1150.7
1150.06
1150.29
1149.99
1150.19
1149.93
1150.14
1149.41
1149.34
1149.57
1149.49
1149.41
1149.33
1149.58
1149.48
1149.42
1149.31
1149.55
1149.42
1149.75
1149.6
1149.94
1149.75
1149.83
1149.81
1149.91
1149.87
1150.19
1150.19
1150.29
1150.26
1149.66
1149.61
1149.59
1149.56
1150.04
1149.97
1150.19
1150.08
1150.42
1150.37
1150.58
1150.5
1149.78
1149.69
1149.93
1149.79
1149.49
1149.36
1149.46
1149.39
1149.42
1149.31
1149.42
1149.37
1149.6
1149.44
1149.53
1149.44
1149.73
1149.55
1149.62
1149.51
1149.34
1149.37
1149.28
1149.33
1149.35
1149.38
1149.28
1149.34
1149.39
1149.41
1149.3
1149.34
1149.79
1150.15
1149.56
1149.4
1149.32
1150.16
1149.81
1149.58
1149.43
1149.35
1150.15
1149.79
1149.55
1149.41
1149.37
1149.48
1149.69
1149.47
1149.69
1149.48
1149.67
1149.46
1149.67
1149.49
1149.66
1149.44
1149.64
1150.16
1150.24
1149.81
1149.91
1149.6
1149.73
1149.47
1149.61
1149.43
1149.61
1150.12
1150.15
1149.77
1149.82
1149.55
1149.64
1149.44
1149.57
1149.43
1149.61
1149.76
1149.75
1149.83
1149.78
1150.13
1150.08
1150.21
1150.12
1149.61
1149.62
1149.55
1149.6
1149.95
1149.86
1150.06
1149.98
1150.33
1150.21
1150.46
1150.35
1149.7
1149.7
1149.8
1149.81
1149.5
1149.59
1149.5
1149.67
1149.45
1149.57
1149.46
1149.64
1149.57
1149.65
1149.56
1149.73
1149.66
1149.76
1149.64
1149.81
1149.93
1150.17
1150.01
1150.28
1149.9
1150.15
1149.98
1150.27
1149.88
1150.15
1149.95
1150.28
1150.4
1150.7
1150.1
1150.41
1149.92
1150.24
1149.83
1150.15
1149.92
1150.31
1150.29
1150.63
1149.98
1150.34
1149.84
1150.22
1149.82
1150.22
1149.95
1150.4
1149.47
1149.87
1150.56
1151.68
1149.61
1150.01
1150.71
1151.83
1149.46
1149.86
1150.55
1151.67
1149.6
1149.99
1150.68
1151.8
1149.45
1149.85
1150.5
1151.59
1149.54
1149.93
1150.59
1151.68
1149.69
1150.07
1150.74
1151.84
1149.81
1150.16
1150.82
1151.9
1149.49
1149.88
1150.51
1151.59
1149.56
1149.95
1150.53
1151.48
1149.47
1149.87
1150.47
1151.49
1149.55
1149.95
1150.51
1151.43
1149.55
1149.93
1150.58
1151.67
1149.59
1149.97
1150.55
1151.52
1149.63
1149.98
1150.62
1151.69
1149.64
1150.01
1150.58
1151.52
1149.42
1149.83
1150.48
1151.54
1149.49
1149.89
1150.48
1151.42
1149.43
1149.83
1150.47
1151.53
1149.5
1149.9
1150.48
1151.42
1149.45
1149.86
1150.47
1151.5
1149.52
1149.92
1150.5
1151.42
1149.5
1149.9
1150.48
1151.44
1149.54
1149.95
1150.51
1151.4
1149.56
1149.96
1150.51
1151.39
1149.64
1150.04
1150.59
1151.28
1149.84
1150.24
1150.8
1151.44
1149.64
1150.04
1150.59
1151.28
1149.84
1150.24
1150.8
1151.44
1149.64
1150.05
1150.6
1151.28
1149.84
1150.25
1150.81
1151.45
1149.65
1150.05
1150.6
1151.28
1149.85
1150.26
1150.82
1151.45
1149.66
1150.06
1150.6
1151.28
1149.86
1150.27
1150.83
1151.47
1149.72
1150.12
1150.65
1151.33
1149.9
1150.31
1150.86
1151.5
1149.68
1150.09
1150.63
1151.3
1149.87
1150.29
1150.84
1151.48
1149.77
1150.16
1150.69
1151.36
1149.95
1150.35
1150.89
1151.52
1149.82
1150.2
1150.72
1151.39
1150.01
1150.4
1150.93
1151.55
1153.32
1154.63
1155.74
1156.63
1157.32
1153.41
1154.7
1155.8
1156.69
1157.38
1153.33
1154.64
1155.74
1156.63
1157.32
1153.41
1154.7
1155.8
1156.69
1157.38
1153.32
1154.63
1155.74
1156.63
1157.32
1153.37
1154.66
1155.76
1156.65
1157.34
1153.42
1154.71
1155.8
1156.69
1157.38
1153.44
1154.71
1155.81
1156.69
1157.37
1153.33
1154.64
1155.74
1156.63
1157.32
1153.4
1154.74
1155.84
1156.73
1157.42
1153.33
1154.66
1155.76
1156.65
1157.34
1153.41
1154.75
1155.86
1156.75
1157.43
1153.35
1154.65
1155.75
1156.64
1157.33
1153.43
1154.76
1155.86
1156.75
1157.43
1153.36
1154.66
1155.75
1156.64
1157.32
1153.45
1154.78
1155.88
1156.76
1157.44
1153.33
1154.66
1155.77
1156.66
1157.35
1153.42
1154.77
1155.88
1156.78
1157.46
1153.33
1154.67
1155.78
1156.67
1157.35
1153.42
1154.78
1155.89
1156.78
1157.46
1153.35
1154.68
1155.79
1156.69
1157.37
1153.43
1154.79
1155.9
1156.79
1157.47
1153.38
1154.73
1155.84
1156.73
1157.41
1153.46
1154.81
1155.92
1156.81
1157.5
1153.45
1154.8
1155.9
1156.79
1157.48
1156.18
1156.42
1156.21
1156.46
1156.29
1156.54
1156.41
1156.66
1156.6
1156.82
1157.1
1157.38
1156.88
1157.12
1157.3
1157.6
1157.47
1157.78
1159.24
1162.34
1164.82
1166.68
1167.91
1159.17
1162.3
1164.81
1166.69
1167.94
1159.27
1162.36
1164.83
1166.69
1167.92
1159.21
1162.33
1164.83
1166.71
1167.96
1159.33
1162.4
1164.86
1166.72
1167.94
1159.27
1162.37
1164.86
1166.73
1167.97
1159.43
1162.47
1164.91
1166.75
1167.97
1159.36
1162.43
1164.9
1166.77
1168
1159.57
1162.56
1164.98
1166.81
1168.02
1159.47
1162.51
1164.96
1166.81
1168.04
1159.89
1162.79
1165.15
1166.94
1168.14
1159.83
1162.75
1165.13
1166.95
1168.16
1159.73
1162.67
1165.06
1166.87
1168.07
1159.64
1162.61
1165.03
1166.87
1168.09
1160.05
1162.91
1165.24
1167.02
1168.2
1160.02
1162.89
1165.24
1167.03
1168.23
1160.21
1163.03
1165.34
1167.1
1168.27
1160.19
1163.03
1165.34
1167.11
1168.3
1150.57
1150.88
1150.65
1150.33
1149.9
1150.08
1149.9
1150.1
1150.22
1150.43
1150.22
1150.4
1153.73
1153.67
1153.53
1153.32
1153.02
1152.67
1153.75
1153.7
1153.57
1153.36
1153.09
1152.78
1153.87
1154.08
1153.81
1154.01
1153.65
1153.83
1153.4
1153.55
1153.07
1153.18
1152.68
1152.8
1152.28
1151.92
1151.61
1151.36
1151.17
1151.03
1152.44
1152.11
1151.82
1151.57
1151.38
1151.24
1153.47
1153.37
1153.38
1153.52
1153.78
1153.41
1153.31
1153.33
1153.46
1153.72
1153.27
1153.17
1153.19
1153.32
1153.58
1153.05
1152.95
1152.96
1153.1
1153.36
1152.75
1152.64
1152.65
1152.79
1153.05
1152.39
1152.28
1152.28
1152.41
1152.67
1153.49
1153.39
1153.41
1153.54
1153.8
1153.44
1153.33
1153.35
1153.49
1153.75
1153.31
1153.2
1153.22
1153.35
1153.61
1153.1
1152.99
1153
1153.14
1153.4
1152.83
1152.71
1152.72
1152.86
1153.11
1152.5
1152.39
1152.39
1152.52
1152.78
1153.61
1153.51
1153.53
1153.66
1153.92
1153.82
1153.72
1153.74
1153.88
1154.13
1153.55
1153.44
1153.46
1153.6
1153.86
1153.75
1153.65
1153.67
1153.8
1154.06
1153.39
1153.29
1153.3
1153.44
1153.7
1153.57
1153.47
1153.49
1153.62
1153.88
1153.14
1153.03
1153.05
1153.18
1153.44
1153.29
1153.18
1153.19
1153.33
1153.59
1152.8
1152.69
1152.71
1152.84
1153.1
1152.91
1152.8
1152.81
1152.95
1153.2
1152.41
1152.3
1152.3
1152.43
1152.69
1152.53
1152.41
1152.42
1152.55
1152.8
1152
1151.88
1151.88
1152
1152.26
1151.63
1151.5
1151.48
1151.6
1151.85
1151.31
1151.16
1151.13
1151.23
1151.48
1151.03
1150.86
1150.81
1150.9
1151.14
1150.82
1150.62
1150.56
1150.63
1150.86
1150.66
1150.46
1150.38
1150.45
1150.68
1152.16
1152.03
1152.03
1152.16
1152.41
1151.82
1151.69
1151.68
1151.79
1152.04
1151.52
1151.37
1151.35
1151.45
1151.7
1151.25
1151.09
1151.06
1151.15
1151.4
1151.05
1150.88
1150.83
1150.92
1151.16
1150.91
1150.73
1150.67
1150.76
1151
1153.7
1153.59
1153.39
1153.11
1152.76
1152.35
1153.72
1153.61
1153.42
1153.16
1152.84
1152.47
1153.84
1154.05
1153.72
1153.91
1153.5
1153.68
1153.19
1153.32
1152.8
1152.89
1152.34
1152.44
1151.91
1151.51
1151.2
1150.99
1150.91
1150.94
1152.09
1151.75
1151.46
1151.27
1151.17
1151.17
1153.44
1153.34
1153.36
1153.49
1153.75
1153.33
1153.22
1153.24
1153.38
1153.64
1153.13
1153.03
1153.04
1153.18
1153.44
1152.85
1152.75
1152.76
1152.9
1153.16
1152.5
1152.39
1152.4
1152.54
1152.8
1152.08
1151.96
1151.97
1152.11
1152.37
1153.46
1153.36
1153.38
1153.52
1153.77
1153.35
1153.25
1153.27
1153.41
1153.66
1153.16
1153.06
1153.08
1153.21
1153.47
1152.9
1152.79
1152.81
1152.95
1153.21
1152.57
1152.46
1152.48
1152.61
1152.87
1152.2
1152.09
1152.1
1152.23
1152.49
1153.58
1153.48
1153.5
1153.64
1153.89
1153.79
1153.69
1153.71
1153.85
1154.1
1153.46
1153.36
1153.37
1153.51
1153.77
1153.66
1153.55
1153.57
1153.71
1153.97
1153.24
1153.14
1153.16
1153.29
1153.55
1153.42
1153.31
1153.33
1153.47
1153.73
1152.93
1152.83
1152.84
1152.98
1153.24
1153.06
1152.96
1152.97
1153.11
1153.37
1152.53
1152.43
1152.44
1152.57
1152.84
1152.63
1152.52
1152.53
1152.67
1152.93
1152.07
1151.96
1151.97
1152.11
1152.37
1152.17
1152.05
1152.06
1152.2
1152.46
1151.63
1151.51
1151.52
1151.65
1151.91
1151.23
1151.1
1151.09
1151.22
1151.47
1150.9
1150.76
1150.74
1150.85
1151.1
1150.67
1150.51
1150.47
1150.57
1150.82
1150.57
1150.38
1150.32
1150.41
1150.64
1150.57
1150.37
1150.3
1150.37
1150.6
1151.82
1151.7
1151.7
1151.83
1152.09
1151.46
1151.33
1151.33
1151.45
1151.71
1151.17
1151.03
1151.01
1151.13
1151.38
1150.96
1150.81
1150.78
1150.88
1151.13
1150.85
1150.68
1150.64
1150.73
1150.98
1150.84
1150.66
1150.61
1150.69
1150.93
1150.91
1150.86
1151.46
1151.91
1151.93
1152.04
1151.63
1150.65
1150.77
1150.69
1151.07
1151.01
1150.95
1151.23
1151.29
1151.46
1150.62
1150.64
1150.96
1150.99
1150.8
1150.85
1151.09
1151.15
1151.55
1151.55
1151.22
1151.22
1150.76
1150.75
1150.61
1150.72
1150.77
1150.63
1151.06
1151.42
1150.98
1150.33
1150.04
1149.93
1149.95
1150.12
1150.43
1150.19
1150.08
1150.13
1150.34
1151.18
1151.05
1151.05
1151.17
1151.43
1151.63
1151.51
1151.52
1151.65
1151.91
1151.65
1151.54
1151.54
1151.67
1151.93
1151.76
1151.65
1151.65
1151.78
1152.04
1151.35
1151.22
1151.23
1151.35
1151.61
1150.13
1149.87
1149.77
1149.8
1149.97
1150.28
1150.03
1149.93
1149.98
1150.17
1150.32
1150.11
1150.03
1150.1
1150.33
1150.62
1150.4
1150.33
1150.39
1150.61
1150.69
1150.53
1150.5
1150.6
1150.85
1150.61
1150.42
1150.37
1150.46
1150.69
1150.93
1150.78
1150.76
1150.87
1151.12
1150.98
1150.83
1150.8
1150.9
1151.15
1151.16
1151.02
1151
1151.11
1151.36
1150.11
1149.86
1149.76
1149.79
1149.97
1150.28
1150.09
1150.03
1150.1
1150.34
1150.65
1150.49
1150.46
1150.57
1150.82
1150.68
1150.54
1150.51
1150.62
1150.87
1150.47
1150.31
1150.27
1150.37
1150.61
1150.54
1150.38
1150.35
1150.45
1150.7
1150.79
1150.65
1150.64
1150.75
1151
1150.86
1150.72
1150.71
1150.83
1151.08
1151.26
1151.13
1151.12
1151.25
1151.5
1151.27
1151.14
1151.14
1151.26
1151.52
1150.92
1150.78
1150.76
1150.88
1151.13
1150.92
1150.79
1150.77
1150.89
1151.15
1150.21
1149.94
1149.83
1149.86
1150.04
1150.36
1150.14
1150.05
1150.11
1150.34
1150.18
1149.95
1149.85
1149.9
1150.1
1150.38
1150.19
1150.13
1150.21
1150.45
1150.44
1150.27
1150.23
1150.33
1150.57
1150.28
1150.08
1150.01
1150.08
1150.32
1150.76
1150.62
1150.6
1150.72
1150.97
1151.13
1151
1151
1151.12
1151.38
1150.68
1150.53
1150.51
1150.62
1150.87
1151.12
1150.87
1150.77
1150.81
1150.98
1151.3
1150.99
1151.01
1150.55
1150.54
1151.03
1151.07
1150.56
1150.58
1151.47
1151.96
1151.47
1151.92
1151.52
1151.49
1151.83
1150.98
1151
1150.53
1150.52
1151.02
1151.06
1150.55
1150.58
1151.49
1152.02
1151.5
1151.96
1151.54
1151.5
1151.87
1150.99
1151.01
1150.53
1150.51
1151.04
1151.07
1150.55
1150.58
1151.52
1152.15
1151.52
1152.07
1151.56
1151.52
1151.97
1151.08
1151.1
1150.61
1150.59
1151.13
1151.17
1150.63
1150.66
1151.64
1152.31
1151.64
1152.23
1151.67
1151.63
1152.1
1151.23
1151.26
1150.77
1150.75
1151.28
1151.34
1150.79
1150.82
1151.8
1152.43
1151.8
1152.36
1151.83
1151.79
1152.24
1151.52
1151.54
1151.06
1151.05
1151.56
1151.6
1151.08
1151.11
1152.05
1152.63
1152.04
1152.57
1152.07
1152.03
1152.44
1149.84
1149.83
1150.15
1150.15
1149.84
1149.85
1150.16
1150.17
1149.61
1149.43
1149.62
1149.46
1149.62
1149.65
1149.51
1149.81
1149.82
1150.13
1150.13
1149.83
1149.84
1150.15
1150.16
1149.57
1149.43
1149.59
1149.46
1149.61
1149.65
1149.52
1149.81
1149.81
1150.13
1150.12
1149.83
1149.85
1150.15
1150.17
1149.59
1149.49
1149.61
1149.52
1149.64
1149.68
1149.58
1149.88
1149.89
1150.21
1150.19
1149.92
1149.95
1150.23
1150.25
1149.69
1149.64
1149.72
1149.67
1149.75
1149.8
1149.72
1150.05
1150.06
1150.37
1150.36
1150.1
1150.13
1150.39
1150.41
1149.88
1149.86
1149.91
1149.88
1149.95
1150
1149.92
1150.36
1150.37
1150.67
1150.66
1150.4
1150.44
1150.69
1150.71
1150.19
1150.14
1150.22
1150.16
1150.25
1150.3
1150.2
1153.6
1153.52
1153.37
1153.24
1153.03
1152.9
1152.56
1152.45
1152.65
1152.53
1153.02
1152.9
1153.29
1153.17
1153.5
1153.42
1152.93
1152.76
1152.71
1152.48
1152.36
1152.14
1152.15
1151.88
1153.9
1154.38
1153.81
1154.26
1153.68
1154.14
1153.54
1153.98
1153.2
1153.46
1152.96
1153.29
1153.86
1153.59
1152.43
1152.02
1152.21
1151.91
1151.91
1151.57
1151.65
1151.39
1152.92
1152.5
1152.68
1152.36
1153.31
1152.9
1154.94
1155.27
1154.71
1155.05
1154.7
1155.11
1154.42
1154.8
1154.36
1154.92
1153.94
1154.46
1153.62
1154.13
1153.25
1153.77
1152.81
1152.73
1152.45
1152.42
1152.05
1151.96
1151.77
1151.68
1153.11
1153.21
1153.53
1153.55
1152.16
1152.16
1151.88
1151.94
1151.52
1151.44
1151.28
1151.24
1152.77
1152.93
1152.47
1152.71
1153.76
1154.39
1154
1154.71
1154.21
1154.85
1154.35
1155.09
1153.39
1154
1153.71
1154.4
1153.06
1153.66
1153.48
1154.16
1155.72
1156.45
1155.84
1156.56
1155.5
1156.17
1155.72
1156.41
1155.14
1155.65
1155.52
1156.08
1153.31
1152.41
1154.12
1154.73
1155.39
1152.54
1153.48
1154.45
1155.1
1155.82
1152.31
1153.15
1153.97
1154.74
1155.5
1157.12
1157.44
1157.48
1157.77
1156.77
1157.15
1157.25
1157.56
1156.18
1156.6
1156.86
1157.23
1152.74
1153.08
1153.78
1154.24
1154.73
1155.21
1155.49
1155.96
1156.49
1156.97
1152.46
1152.74
1153.4
1153.89
1154.29
1154.84
1155.17
1155.77
1156.28
1156.91
1152.97
1153.51
1152.58
1153.06
1152.05
1152.2
1151.7
1151.78
1153.52
1154.16
1153.9
1154.58
1152.25
1152.73
1152.04
1152.5
1151.42
1151.5
1151.21
1151.27
1153.17
1153.82
1152.96
1153.59
1154.59
1155.36
1155.91
1156.85
1154.89
1155.71
1156.11
1157.03
1154.3
1155.06
1155.71
1156.64
1154.04
1154.8
1155.43
1156.31
1157.54
1157.67
1157.94
1157.6
1157.65
1157.89
1157.31
1157.48
1157.77
1157.44
1157.5
1157.76
1156.87
1157.1
1157.41
1157.19
1157.29
1157.58
1153.5
1153.97
1154.48
1154.73
1155.14
1155.59
1155.66
1156.02
1156.41
1156.33
1156.63
1157
1156.99
1157.14
1157.48
1153.12
1153.65
1154.23
1154.53
1155.08
1155.65
1155.49
1155.98
1156.48
1156.27
1156.63
1157.08
1156.98
1157.17
1157.57
1151.34
1151.17
1151.19
1150.97
1151.8
1151.59
1151.62
1151.36
1151.25
1150.89
1151.21
1150.87
1151.14
1150.82
1151.07
1150.77
1150.82
1150.97
1150.73
1150.9
1150.76
1150.64
1150.8
1150.59
1151.15
1150.93
1150.73
1150.54
1150.59
1150.41
1150.57
1150.38
1150.53
1150.21
1150.59
1150.29
1150.48
1150.15
1150.49
1150.19
1150.44
1150.08
1150.36
1150.03
1150.3
1150.01
1150.14
1149.9
1150.94
1150.79
1150.74
1150.57
1151.42
1151.29
1151.19
1151.05
1150.43
1150.23
1150.6
1150.42
1150.55
1150.39
1150.36
1150.22
1150.97
1150.84
1150.76
1150.65
1150.26
1150.06
1150.08
1149.92
1150.16
1149.88
1150
1149.83
1150.3
1150
1150.16
1149.97
1150.03
1149.78
1149.85
1149.71
1149.88
1149.66
1149.73
1149.6
1150.54
1150.69
1150.24
1150.4
1150.53
1150.69
1150.22
1150.38
1150.53
1150.67
1150.18
1150.33
1151.08
1151.65
1150.72
1150.44
1150.14
1151.77
1151.2
1150.87
1150.59
1150.27
1151.55
1150.99
1150.59
1150.32
1150.1
1150.95
1151.32
1150.67
1151.02
1150.93
1151.28
1150.62
1150.97
1150.88
1151.21
1150.54
1150.86
1151.92
1152.2
1151.32
1151.6
1150.98
1151.27
1150.71
1151.01
1150.41
1150.71
1151.64
1151.8
1151.07
1151.24
1150.68
1150.88
1150.43
1150.68
1150.24
1150.55
1150.75
1150.81
1150.53
1150.53
1151.27
1151.31
1151.01
1150.97
1150.23
1150.3
1150.42
1150.54
1150.36
1150.31
1150.2
1150.13
1150.8
1150.71
1150.62
1150.51
1150.07
1150.11
1149.93
1149.94
1150.04
1150.19
1149.95
1150.19
1150.21
1150.41
1150.08
1150.36
1149.9
1150.01
1149.83
1150.05
1149.78
1149.88
1149.73
1149.91
1151.82
1152.31
1152.78
1151.64
1152.2
1152.66
1151.75
1152.25
1152.73
1151.55
1152.12
1152.6
1151.65
1152.14
1152.62
1151.42
1152.01
1152.53
1152.58
1153.05
1153.56
1151.99
1152.49
1153.01
1151.67
1152.18
1152.72
1151.43
1151.95
1152.47
1151.28
1151.9
1152.47
1152.11
1152.62
1153.2
1151.55
1152.08
1152.66
1151.25
1151.8
1152.41
1151.11
1151.7
1152.3
1151.14
1151.79
1152.41
1150.07
1150.28
1150.84
1151.87
1150.17
1150.39
1150.96
1152
1150.03
1150.24
1150.8
1151.84
1150.09
1150.33
1150.91
1151.95
1149.97
1150.2
1150.74
1151.75
1149.95
1150.21
1150.78
1151.81
1149.97
1150.26
1150.87
1151.93
1149.91
1150.23
1150.87
1151.93
1149.85
1150.12
1150.68
1151.71
1149.87
1150.16
1150.68
1151.59
1149.94
1150.18
1150.69
1151.64
1149.97
1150.23
1150.71
1151.57
1149.78
1150.08
1150.69
1151.75
1149.78
1150.1
1150.65
1151.59
1149.7
1150.04
1150.66
1151.72
1149.71
1150.05
1150.61
1151.55
1150.09
1150.27
1150.78
1151.75
1150.22
1150.37
1150.8
1151.65
1150.07
1150.26
1150.76
1151.73
1150.21
1150.37
1150.8
1151.64
1150.06
1150.26
1150.74
1151.68
1150.18
1150.36
1150.79
1151.62
1150.05
1150.27
1150.73
1151.61
1150.16
1150.36
1150.78
1151.59
1150.07
1150.3
1150.74
1151.55
1150.42
1150.55
1150.93
1151.54
1150.64
1150.76
1151.15
1151.72
1150.39
1150.53
1150.92
1151.53
1150.62
1150.74
1151.15
1151.72
1150.35
1150.51
1150.91
1151.52
1150.57
1150.72
1151.13
1151.71
1150.28
1150.47
1150.88
1151.49
1150.51
1150.69
1151.12
1151.69
1150.2
1150.42
1150.85
1151.47
1150.44
1150.65
1151.1
1151.68
1150.03
1150.33
1150.81
1151.45
1150.25
1150.55
1151.03
1151.63
1150.11
1150.38
1150.83
1151.46
1150.34
1150.6
1151.06
1151.65
1149.96
1150.29
1150.78
1151.44
1150.16
1150.49
1151
1151.61
1149.89
1150.24
1150.75
1151.41
1150.08
1150.44
1150.96
1151.58
1153.44
1154.7
1155.78
1156.66
1157.34
1153.52
1154.77
1155.84
1156.72
1157.4
1153.43
1154.7
1155.78
1156.66
1157.34
1153.5
1154.76
1155.84
1156.72
1157.39
1153.41
1154.69
1155.77
1156.65
1157.33
1153.44
1154.71
1155.79
1156.67
1157.35
1153.47
1154.74
1155.82
1156.71
1157.39
1153.46
1154.73
1155.81
1156.7
1157.38
1153.4
1154.68
1155.77
1156.65
1157.33
1153.46
1154.78
1155.87
1156.75
1157.43
1153.41
1154.71
1155.79
1156.67
1157.35
1153.48
1154.8
1155.89
1156.77
1157.45
1153.4
1154.68
1155.77
1156.65
1157.34
1153.47
1154.79
1155.88
1156.76
1157.44
1153.38
1154.67
1155.76
1156.65
1157.33
1153.46
1154.79
1155.88
1156.77
1157.45
1153.44
1154.73
1155.81
1156.69
1157.37
1153.54
1154.84
1155.93
1156.8
1157.48
1153.44
1154.73
1155.82
1156.7
1157.38
1153.54
1154.84
1155.93
1156.81
1157.48
1153.44
1154.74
1155.83
1156.71
1157.39
1153.54
1154.85
1155.94
1156.81
1157.49
1153.47
1154.78
1155.87
1156.75
1157.43
1153.55
1154.87
1155.96
1156.84
1157.51
1153.53
1154.84
1155.93
1156.81
1157.49
1159.02
1159.23
1158.92
1159.14
1158.75
1158.99
1158.54
1158.82
1158.33
1158.64
1157.99
1158.36
1158.16
1158.52
1157.82
1158.17
1157.64
1157.97
1161.31
1163.81
1165.92
1167.56
1168.68
1161.27
1163.79
1165.92
1167.57
1168.71
1161.26
1163.79
1165.9
1167.55
1168.67
1161.23
1163.78
1165.91
1167.57
1168.7
1161.18
1163.74
1165.87
1167.52
1168.65
1161.15
1163.73
1165.88
1167.54
1168.68
1161.07
1163.67
1165.83
1167.49
1168.62
1161.05
1163.67
1165.84
1167.51
1168.66
1160.93
1163.59
1165.77
1167.44
1168.58
1160.93
1163.6
1165.79
1167.48
1168.62
1160.65
1163.38
1165.61
1167.32
1168.47
1160.68
1163.41
1165.64