/*--------------------------------*- C++ -*----------------------------------*\
  =========                 |
  \\      /  F ield         | OpenFOAM: The Open Source CFD Toolbox
   \\    /   O peration     | Website:  https://openfoam.org
    \\  /    A nd           | Version:  13
     \\/     M anipulation  |
\*---------------------------------------------------------------------------*/
FoamFile
{
    format      ascii;
    class       volScalarField;
    location    "219.831886";
    object      T;
}
// * * * * * * * * * * * * * * * * * * * * * * * * * * * * * * * * * * * * * //

dimensions      [0 0 0 1 0 0 0];

internalField   nonuniform List<scalar> 
5712
(
1126.71
1126.63
1126.5
1126.38
1126.17
1126.05
1125.71
1125.61
1125.79
1125.68
1126.15
1126.04
1126.42
1126.3
1126.61
1126.53
1126.08
1125.92
1125.87
1125.65
1125.52
1125.32
1125.33
1125.07
1127.01
1127.49
1126.92
1127.37
1126.81
1127.27
1126.68
1127.11
1126.35
1126.6
1126.13
1126.44
1127
1126.73
1125.61
1125.22
1125.4
1125.11
1125.1
1124.77
1124.85
1124.6
1126.09
1125.68
1125.85
1125.55
1126.47
1126.07
1128.04
1128.36
1127.81
1128.14
1127.82
1128.22
1127.55
1127.92
1127.49
1128.04
1127.08
1127.59
1126.77
1127.27
1126.42
1126.93
1125.97
1125.9
1125.64
1125.61
1125.23
1125.14
1124.96
1124.87
1126.28
1126.39
1126.68
1126.71
1125.35
1125.36
1125.09
1125.15
1124.72
1124.65
1124.5
1124.46
1125.96
1126.12
1125.67
1125.91
1126.91
1127.53
1127.16
1127.85
1127.35
1127.98
1127.5
1128.22
1126.56
1127.15
1126.88
1127.56
1126.24
1126.82
1126.66
1127.33
1128.81
1129.52
1128.93
1129.64
1128.6
1129.26
1128.82
1129.49
1128.25
1128.75
1128.63
1129.18
1126.45
1125.57
1127.25
1127.86
1128.51
1125.69
1126.62
1127.57
1128.22
1128.93
1125.47
1126.3
1127.11
1127.87
1128.62
1130.18
1130.49
1130.55
1130.83
1129.85
1130.21
1130.33
1130.63
1129.27
1129.67
1129.95
1130.31
1125.88
1126.2
1126.9
1127.34
1127.84
1128.3
1128.59
1129.05
1129.59
1130.05
1125.61
1125.87
1126.55
1127.01
1127.42
1127.95
1128.29
1128.87
1129.39
1130
1126.13
1126.65
1125.76
1126.22
1125.22
1125.36
1124.89
1124.96
1126.69
1127.31
1127.05
1127.71
1125.44
1125.9
1125.24
1125.68
1124.62
1124.68
1124.43
1124.47
1126.35
1126.98
1126.15
1126.77
1127.74
1128.5
1129.05
1129.97
1128.03
1128.83
1129.24
1130.15
1127.47
1128.2
1128.86
1129.77
1127.21
1127.95
1128.59
1129.45
1130.57
1130.69
1130.93
1130.64
1130.67
1130.9
1130.36
1130.51
1130.77
1130.48
1130.53
1130.77
1129.92
1130.12
1130.42
1130.24
1130.32
1130.59
1126.59
1127.04
1127.52
1127.8
1128.19
1128.61
1128.73
1129.06
1129.43
1129.39
1129.67
1130.02
1130.05
1130.17
1130.49
1126.23
1126.73
1127.27
1127.62
1128.14
1128.68
1128.57
1129.02
1129.5
1129.34
1129.67
1130.09
1130.04
1130.2
1130.57
1124.52
1124.36
1124.38
1124.17
1124.97
1124.77
1124.81
1124.56
1124.4
1124.05
1124.37
1124.04
1124.31
1124
1124.24
1123.95
1124.02
1124.15
1123.93
1124.09
1123.94
1123.83
1124.01
1123.82
1124.36
1124.15
1123.93
1123.75
1123.81
1123.64
1123.77
1123.6
1123.7
1123.39
1123.76
1123.46
1123.66
1123.34
1123.68
1123.38
1123.63
1123.28
1123.56
1123.23
1123.5
1123.21
1123.36
1123.11
1124.13
1123.99
1123.95
1123.79
1124.61
1124.48
1124.39
1124.26
1123.64
1123.45
1123.8
1123.62
1123.77
1123.61
1123.59
1123.46
1124.19
1124.06
1123.99
1123.89
1123.48
1123.29
1123.32
1123.16
1123.38
1123.09
1123.22
1123.04
1123.51
1123.2
1123.37
1123.17
1123.25
1123
1123.08
1122.93
1123.11
1122.89
1122.97
1122.84
1123.7
1123.84
1123.42
1123.57
1123.7
1123.85
1123.4
1123.55
1123.7
1123.84
1123.37
1123.51
1124.26
1124.82
1123.91
1123.63
1123.33
1124.93
1124.37
1124.04
1123.77
1123.45
1124.72
1124.18
1123.79
1123.52
1123.3
1124.09
1124.43
1123.82
1124.15
1124.08
1124.4
1123.78
1124.1
1124.03
1124.34
1123.71
1124.01
1125.07
1125.33
1124.48
1124.74
1124.14
1124.41
1123.88
1124.16
1123.59
1123.87
1124.81
1124.95
1124.25
1124.4
1123.87
1124.05
1123.62
1123.85
1123.43
1123.71
1123.95
1123.99
1123.74
1123.73
1124.46
1124.48
1124.21
1124.16
1123.44
1123.5
1123.62
1123.73
1123.59
1123.52
1123.43
1123.35
1124.02
1123.92
1123.84
1123.73
1123.3
1123.32
1123.16
1123.17
1123.25
1123.39
1123.16
1123.38
1123.41
1123.6
1123.28
1123.54
1123.12
1123.22
1123.05
1123.24
1123.01
1123.1
1122.95
1123.12
1124.9
1125.37
1125.81
1124.73
1125.26
1125.7
1124.84
1125.32
1125.77
1124.66
1125.19
1125.65
1124.76
1125.22
1125.68
1124.54
1125.1
1125.59
1125.68
1126.13
1126.61
1125.11
1125.57
1126.07
1124.79
1125.27
1125.78
1124.56
1125.04
1125.53
1124.41
1124.99
1125.53
1125.23
1125.71
1126.26
1124.69
1125.18
1125.74
1124.39
1124.91
1125.48
1124.25
1124.8
1125.38
1124.27
1124.89
1125.48
1123.25
1123.43
1123.95
1124.92
1123.34
1123.53
1124.07
1125.05
1123.21
1123.4
1123.92
1124.9
1123.27
1123.48
1124.02
1125
1123.16
1123.37
1123.86
1124.81
1123.14
1123.37
1123.9
1124.87
1123.16
1123.42
1123.99
1124.98
1123.1
1123.39
1123.99
1124.99
1123.05
1123.29
1123.81
1124.77
1123.06
1123.33
1123.8
1124.67
1123.13
1123.35
1123.82
1124.71
1123.16
1123.39
1123.83
1124.64
1122.98
1123.25
1123.81
1124.81
1122.98
1123.27
1123.77
1124.66
1122.91
1123.21
1123.79
1124.78
1122.91
1123.22
1123.74
1124.62
1123.26
1123.43
1123.9
1124.81
1123.39
1123.52
1123.92
1124.71
1123.25
1123.42
1123.88
1124.79
1123.38
1123.52
1123.92
1124.71
1123.24
1123.42
1123.87
1124.74
1123.36
1123.51
1123.91
1124.69
1123.24
1123.43
1123.85
1124.68
1123.33
1123.51
1123.9
1124.66
1123.25
1123.46
1123.86
1124.62
1123.57
1123.68
1124.04
1124.61
1123.79
1123.88
1124.25
1124.78
1123.55
1123.67
1124.03
1124.6
1123.76
1123.87
1124.24
1124.77
1123.51
1123.65
1124.02
1124.59
1123.72
1123.85
1124.23
1124.76
1123.45
1123.62
1123.99
1124.57
1123.66
1123.82
1124.21
1124.75
1123.37
1123.57
1123.96
1124.54
1123.59
1123.78
1124.19
1124.74
1123.22
1123.49
1123.92
1124.52
1123.42
1123.68
1124.13
1124.69
1123.29
1123.53
1123.94
1124.53
1123.51
1123.74
1124.16
1124.71
1123.15
1123.44
1123.9
1124.51
1123.34
1123.64
1124.1
1124.67
1123.08
1123.4
1123.87
1124.49
1123.27
1123.59
1124.07
1124.65
1126.41
1127.61
1128.64
1129.49
1130.14
1126.48
1127.68
1128.7
1129.55
1130.2
1126.4
1127.61
1128.64
1129.49
1130.14
1126.47
1127.67
1128.7
1129.54
1130.19
1126.38
1127.6
1128.64
1129.48
1130.14
1126.42
1127.62
1128.65
1129.5
1130.15
1126.45
1127.65
1128.69
1129.53
1130.19
1126.43
1127.64
1128.68
1129.52
1130.18
1126.37
1127.6
1128.63
1129.48
1130.13
1126.43
1127.69
1128.73
1129.57
1130.23
1126.39
1127.62
1128.66
1129.5
1130.15
1126.45
1127.71
1128.75
1129.59
1130.25
1126.37
1127.6
1128.64
1129.48
1130.14
1126.44
1127.7
1128.74
1129.59
1130.24
1126.35
1127.58
1128.63
1129.47
1130.13
1126.44
1127.7
1128.74
1129.59
1130.25
1126.42
1127.64
1128.68
1129.52
1130.17
1126.51
1127.75
1128.78
1129.63
1130.28
1126.41
1127.64
1128.68
1129.52
1130.18
1126.5
1127.75
1128.79
1129.63
1130.28
1126.42
1127.65
1128.69
1129.53
1130.19
1126.5
1127.75
1128.79
1129.64
1130.29
1126.44
1127.69
1128.73
1129.58
1130.23
1126.52
1127.77
1128.81
1129.66
1130.31
1126.5
1127.75
1128.79
1129.63
1130.29
1132.1
1132.3
1132.01
1132.22
1131.84
1132.07
1131.63
1131.91
1131.43
1131.74
1131.11
1131.48
1131.28
1131.63
1130.95
1131.3
1130.78
1131.1
1134.4
1136.94
1139.09
1140.77
1141.92
1134.37
1136.92
1139.09
1140.78
1141.95
1134.36
1136.92
1139.08
1140.76
1141.91
1134.33
1136.91
1139.08
1140.78
1141.94
1134.28
1136.88
1139.05
1140.73
1141.89
1134.25
1136.86
1139.05
1140.76
1141.92
1134.17
1136.81
1139
1140.7
1141.86
1134.15
1136.81
1139.01
1140.73
1141.9
1134.05
1136.73
1138.94
1140.66
1141.82
1134.04
1136.73
1138.96
1140.69
1141.87
1133.77
1136.52
1138.79
1140.53
1141.71
1133.8
1136.55
1138.82
1140.58
1141.76
1133.91
1136.63
1138.87
1140.6
1141.77
1133.93
1136.65
1138.9
1140.64
1141.82
1133.63
1136.42
1138.7
1140.46
1141.64
1133.65
1136.44
1138.73
1140.5
1141.69
1133.49
1136.3
1138.61
1140.39
1141.58
1133.49
1136.31
1138.63
1140.41
1141.62
1124.04
1124.36
1124.63
1124.26
1124.69
1124.64
1124.63
1124.57
1124.74
1124.66
1125.17
1125.07
1125.39
1125.27
1125.07
1124.97
1124.94
1124.87
1124.91
1124.86
1124.26
1124.16
1125
1125.35
1125.47
1125.5
1125.18
1125.12
1125.54
1125.02
1125.9
1126.44
1125.08
1125.26
1125.68
1125.19
1125.38
1125.4
1124.76
1124.7
1124.9
1124.81
1124.72
1124.62
1124.71
1124.84
1125.31
1125.21
1125.06
1124.96
1124.41
1124.26
1124.47
1124.35
1124.48
1124.53
1124.74
1125.04
1124.74
1123.69
1123.39
1123.26
1123.27
1123.41
1123.74
1123.49
1123.38
1123.41
1123.61
1124.72
1124.59
1124.58
1124.69
1124.92
1125.08
1124.96
1124.96
1125.08
1125.32
1125.2
1125.08
1125.07
1125.18
1125.42
1125.23
1125.12
1125.11
1125.23
1125.47
1124.9
1124.78
1124.77
1124.88
1125.11
1124.5
1124.11
1123.91
1123.86
1123.96
1124.88
1124.46
1124.25
1124.2
1124.32
1124.58
1124.29
1124.14
1124.14
1124.32
1125.28
1124.89
1124.69
1124.66
1124.81
1125.84
1125.44
1125.24
1125.2
1125.36
1124.74
1124.54
1124.45
1124.51
1124.72
1124.86
1124.6
1124.47
1124.49
1124.68
1125.29
1125.04
1124.92
1124.94
1125.13
1124.87
1124.69
1124.63
1124.7
1124.91
1125.04
1124.85
1124.76
1124.82
1125.03
1125.09
1124.92
1124.86
1124.94
1125.16
1124.19
1123.87
1123.7
1123.67
1123.8
1124.31
1124.07
1123.96
1123.99
1124.18
1124.58
1124.4
1124.33
1124.4
1124.61
1124.5
1124.34
1124.29
1124.37
1124.59
1124.39
1124.19
1124.12
1124.18
1124.39
1124.31
1124.14
1124.08
1124.15
1124.37
1124.42
1124.27
1124.23
1124.33
1124.56
1124.55
1124.4
1124.37
1124.47
1124.7
1125.02
1124.88
1124.85
1124.94
1125.17
1124.93
1124.8
1124.78
1124.88
1125.12
1124.76
1124.6
1124.55
1124.63
1124.86
1124.67
1124.52
1124.49
1124.58
1124.81
1123.85
1123.55
1123.41
1123.4
1123.54
1123.87
1123.64
1123.53
1123.57
1123.77
1124.02
1123.75
1123.62
1123.62
1123.78
1124.01
1123.81
1123.73
1123.78
1123.99
1124.15
1123.97
1123.91
1123.98
1124.19
1124.16
1123.93
1123.82
1123.85
1124.05
1124.45
1124.29
1124.26
1124.35
1124.58
1124.76
1124.63
1124.61
1124.71
1124.94
1124.44
1124.28
1124.23
1124.31
1124.54
1124.3
1124.47
1124.32
1124.5
1123.88
1124.07
1123.87
1124.04
1124.33
1124.35
1124.51
1124.47
1123.88
1123.89
1124.06
1124.01
1124.75
1125.18
1124.89
1125.31
1124.75
1125.14
1124.92
1125.31
1124.93
1124.78
1124.84
1124.74
1125.08
1125.24
1124.72
1124.91
1124.64
1124.85
1124.29
1124.49
1124.18
1124.37
1125.14
1125.34
1125.02
1125.25
1125.46
1125.7
1125.58
1125.91
1125.68
1126.01
1125.55
1125.95
1125.69
1126.05
1125.48
1126.03
1125.58
1126.06
1125.78
1126.28
1126.06
1126.57
1124.49
1124.6
1124.57
1124.7
1123.93
1123.96
1124.02
1124.05
1125.1
1125.42
1125.03
1125.32
1124.71
1124.82
1124.88
1124.97
1124.15
1124.16
1124.31
1124.29
1125.24
1125.55
1125.43
1125.72
1125.65
1126.26
1126.17
1126.87
1125.6
1126.26
1126.08
1126.82
1125.78
1126.36
1126.3
1126.97
1125.98
1126.56
1126.47
1127.13
1125.61
1125.82
1125.99
1126.32
1125.58
1125.76
1126.05
1126.37
1125.53
1125.62
1126.15
1126.42
1124.47
1123.89
1125.03
1125.64
1126.4
1123.87
1124.42
1124.99
1125.62
1126.54
1123.92
1124.54
1125.25
1126.03
1126.83
1126.16
1126.3
1127.18
1127.47
1126
1126.15
1127.12
1127.41
1125.77
1125.89
1127.04
1127.34
1123.88
1123.95
1124.47
1124.56
1125.08
1125.17
1125.82
1125.94
1127.14
1127.45
1123.92
1123.99
1124.6
1124.79
1125.38
1125.62
1126.28
1126.58
1127.49
1127.88
1124.76
1125.09
1124.84
1125.19
1123.98
1123.99
1124.05
1124.04
1125.72
1126.22
1125.61
1126.09
1124.92
1125.31
1125.07
1125.49
1124.14
1124.16
1124.27
1124.3
1125.8
1126.36
1125.96
1126.57
1126.77
1127.43
1128.11
1128.95
1126.6
1127.24
1127.87
1128.66
1126.9
1127.58
1128.31
1129.18
1127.02
1127.75
1128.41
1129.27
1126.34
1126.46
1127.26
1127.26
1126.19
1126.32
1127.22
1127.21
1125.97
1126.16
1127.18
1127.17
1124.11
1124.38
1124.73
1124.99
1125.32
1125.54
1126.05
1126.26
1127.25
1127.22
1124.14
1124.44
1125.05
1125.32
1125.85
1126.05
1126.65
1126.73
1127.48
1127.39
1123.17
1123.16
1123.34
1123.27
1123.49
1123.47
1123.67
1123.59
1122.94
1122.78
1123.1
1122.93
1122.95
1122.8
1123.12
1122.96
1123.09
1122.95
1123.08
1122.96
1122.83
1122.97
1123.43
1123.62
1123.75
1123.94
1123.3
1123.52
1123.24
1123.43
1123.17
1123.37
1122.67
1122.6
1122.82
1122.74
1122.68
1122.59
1122.84
1122.73
1122.69
1122.57
1122.81
1122.67
1123
1122.83
1123.17
1122.97
1123.1
1123.08
1123.18
1123.14
1123.46
1123.45
1123.55
1123.52
1122.93
1122.88
1122.86
1122.83
1123.3
1123.22
1123.44
1123.33
1123.67
1123.62
1123.82
1123.74
1123.04
1122.95
1123.17
1123.04
1122.75
1122.61
1122.72
1122.64
1122.69
1122.57
1122.69
1122.62
1122.85
1122.69
1122.78
1122.69
1122.98
1122.79
1122.86
1122.75
1122.61
1122.64
1122.54
1122.59
1122.63
1122.66
1122.55
1122.59
1122.66
1122.68
1122.56
1122.6
1123.07
1123.42
1122.83
1122.67
1122.58
1123.42
1123.08
1122.86
1122.7
1122.61
1123.41
1123.06
1122.82
1122.68
1122.62
1122.75
1122.94
1122.72
1122.93
1122.75
1122.93
1122.71
1122.91
1122.76
1122.91
1122.7
1122.88
1123.42
1123.49
1123.08
1123.18
1122.87
1122.99
1122.74
1122.87
1122.68
1122.85
1123.39
1123.41
1123.04
1123.08
1122.82
1122.9
1122.71
1122.82
1122.68
1122.85
1123.03
1123
1123.09
1123.03
1123.39
1123.33
1123.47
1123.36
1122.86
1122.87
1122.81
1122.85
1123.2
1123.1
1123.3
1123.22
1123.58
1123.45
1123.7
1123.57
1122.95
1122.94
1123.05
1123.04
1122.75
1122.83
1122.74
1122.9
1122.71
1122.82
1122.7
1122.87
1122.81
1122.89
1122.8
1122.95
1122.9
1122.98
1122.87
1123.03
1123.17
1123.39
1123.23
1123.49
1123.15
1123.38
1123.21
1123.48
1123.12
1123.38
1123.17
1123.49
1123.65
1123.93
1123.35
1123.63
1123.17
1123.46
1123.08
1123.37
1123.14
1123.51
1123.53
1123.85
1123.22
1123.56
1123.08
1123.44
1123.06
1123.43
1123.17
1123.59
1122.7
1123.06
1123.7
1124.75
1122.83
1123.19
1123.84
1124.89
1122.69
1123.05
1123.68
1124.74
1122.82
1123.17
1123.81
1124.86
1122.68
1123.04
1123.64
1124.67
1122.76
1123.11
1123.73
1124.75
1122.9
1123.24
1123.87
1124.9
1123.01
1123.33
1123.94
1124.96
1122.72
1123.07
1123.65
1124.66
1122.78
1123.14
1123.66
1124.56
1122.7
1123.06
1123.61
1124.57
1122.77
1123.13
1123.65
1124.52
1122.77
1123.11
1123.71
1124.74
1122.81
1123.15
1123.69
1124.59
1122.84
1123.16
1123.76
1124.76
1122.86
1123.18
1123.71
1124.6
1122.66
1123.02
1123.62
1124.62
1122.72
1123.08
1123.62
1124.51
1122.66
1123.03
1123.62
1124.61
1122.73
1123.09
1123.63
1124.51
1122.68
1123.05
1123.61
1124.58
1122.75
1123.11
1123.64
1124.5
1122.72
1123.09
1123.62
1124.53
1122.77
1123.13
1123.65
1124.49
1122.78
1123.14
1123.65
1124.47
1122.86
1123.22
1123.73
1124.37
1123.05
1123.4
1123.92
1124.52
1122.86
1123.22
1123.72
1124.37
1123.05
1123.41
1123.92
1124.52
1122.86
1123.22
1123.73
1124.37
1123.05
1123.41
1123.93
1124.53
1122.86
1123.23
1123.73
1124.37
1123.05
1123.42
1123.94
1124.53
1122.87
1123.24
1123.73
1124.37
1123.06
1123.43
1123.95
1124.54
1122.93
1123.29
1123.78
1124.41
1123.1
1123.47
1123.98
1124.57
1122.89
1123.26
1123.76
1124.39
1123.07
1123.45
1123.96
1124.55
1122.97
1123.33
1123.82
1124.44
1123.14
1123.5
1124.01
1124.6
1123.02
1123.36
1123.84
1124.47
1123.2
1123.55
1124.04
1124.62
1126.31
1127.55
1128.61
1129.46
1130.12
1126.39
1127.62
1128.67
1129.52
1130.18
1126.31
1127.55
1128.61
1129.46
1130.12
1126.39
1127.61
1128.66
1129.52
1130.18
1126.3
1127.55
1128.61
1129.46
1130.12
1126.35
1127.58
1128.63
1129.48
1130.14
1126.4
1127.62
1128.67
1129.52
1130.18
1126.41
1127.63
1128.67
1129.52
1130.18
1126.31
1127.56
1128.61
1129.46
1130.12
1126.38
1127.65
1128.71
1129.56
1130.22
1126.31
1127.57
1128.63
1129.48
1130.14
1126.39
1127.67
1128.72
1129.58
1130.23
1126.33
1127.57
1128.62
1129.47
1130.13
1126.4
1127.67
1128.72
1129.58
1130.23
1126.34
1127.57
1128.62
1129.47
1130.13
1126.42
1127.69
1128.74
1129.59
1130.24
1126.31
1127.58
1128.64
1129.49
1130.15
1126.4
1127.68
1128.74
1129.6
1130.26
1126.32
1127.58
1128.64
1129.5
1130.16
1126.4
1127.69
1128.75
1129.6
1130.26
1126.33
1127.6
1128.66
1129.51
1130.17
1126.41
1127.7
1128.76
1129.61
1130.27
1126.36
1127.64
1128.7
1129.56
1130.21
1126.44
1127.72
1128.78
1129.64
1130.29
1126.42
1127.71
1128.76
1129.62
1130.27
1129.36
1129.59
1129.39
1129.63
1129.46
1129.71
1129.58
1129.82
1129.77
1129.98
1130.26
1130.54
1130.04
1130.28
1130.45
1130.75
1130.61
1130.92
1132.4
1135.5
1138.01
1139.9
1141.15
1132.33
1135.46
1138
1139.91
1141.18
1132.43
1135.52
1138.02
1139.91
1141.16
1132.37
1135.49
1138.02
1139.93
1141.2
1132.49
1135.56
1138.05
1139.93
1141.18
1132.43
1135.53
1138.05
1139.95
1141.22
1132.58
1135.63
1138.1
1139.97
1141.21
1132.51
1135.59
1138.09
1139.98
1141.24
1132.72
1135.72
1138.16
1140.02
1141.26
1132.63
1135.67
1138.14
1140.03
1141.28
1133.04
1135.95
1138.33
1140.16
1141.38
1132.98
1135.91
1138.32
1140.16
1141.4
1132.88
1135.83
1138.24
1140.09
1141.32
1132.79
1135.77
1138.22
1140.09
1141.33
1133.2
1136.07
1138.43
1140.23
1141.44
1133.16
1136.05
1138.42
1140.25
1141.47
1133.35
1136.19
1138.52
1140.31
1141.51
1133.33
1136.18
1138.53
1140.33
1141.54
1123.8
1124.1
1123.89
1123.57
1123.18
1123.34
1123.17
1123.36
1123.49
1123.69
1123.49
1123.66
1126.65
1126.6
1126.47
1126.27
1126
1125.67
1126.67
1126.62
1126.5
1126.31
1126.06
1125.77
1126.78
1126.98
1126.72
1126.91
1126.58
1126.75
1126.35
1126.49
1126.04
1126.15
1125.69
1125.8
1125.32
1124.99
1124.71
1124.48
1124.31
1124.18
1125.46
1125.16
1124.89
1124.67
1124.5
1124.37
1126.4
1126.3
1126.32
1126.45
1126.7
1126.35
1126.25
1126.27
1126.4
1126.64
1126.22
1126.12
1126.14
1126.27
1126.51
1126.02
1125.92
1125.93
1126.06
1126.3
1125.74
1125.64
1125.65
1125.77
1126.02
1125.41
1125.3
1125.3
1125.43
1125.67
1126.42
1126.33
1126.34
1126.47
1126.72
1126.37
1126.28
1126.29
1126.42
1126.67
1126.25
1126.15
1126.17
1126.3
1126.54
1126.06
1125.96
1125.97
1126.1
1126.34
1125.81
1125.7
1125.71
1125.84
1126.08
1125.51
1125.4
1125.41
1125.53
1125.77
1126.53
1126.44
1126.45
1126.59
1126.83
1126.73
1126.64
1126.66
1126.79
1127.03
1126.48
1126.38
1126.4
1126.53
1126.77
1126.67
1126.57
1126.59
1126.72
1126.96
1126.33
1126.23
1126.25
1126.38
1126.62
1126.51
1126.41
1126.42
1126.55
1126.8
1126.1
1126
1126.01
1126.14
1126.39
1126.24
1126.14
1126.15
1126.28
1126.52
1125.79
1125.69
1125.7
1125.82
1126.07
1125.9
1125.79
1125.8
1125.93
1126.17
1125.43
1125.32
1125.32
1125.45
1125.69
1125.54
1125.43
1125.44
1125.56
1125.8
1125.05
1124.94
1124.93
1125.05
1125.29
1124.71
1124.58
1124.57
1124.68
1124.91
1124.42
1124.27
1124.24
1124.34
1124.57
1124.17
1124
1123.95
1124.03
1124.25
1123.98
1123.79
1123.72
1123.79
1124
1123.83
1123.63
1123.56
1123.62
1123.83
1125.2
1125.08
1125.08
1125.19
1125.43
1124.89
1124.76
1124.75
1124.86
1125.09
1124.61
1124.47
1124.44
1124.54
1124.78
1124.37
1124.22
1124.18
1124.27
1124.5
1124.19
1124.02
1123.97
1124.05
1124.27
1124.06
1123.88
1123.83
1123.9
1124.12
1126.62
1126.51
1126.33
1126.08
1125.75
1125.37
1126.64
1126.54
1126.37
1126.12
1125.82
1125.49
1126.75
1126.95
1126.64
1126.82
1126.44
1126.6
1126.15
1126.28
1125.79
1125.88
1125.36
1125.45
1124.96
1124.6
1124.31
1124.13
1124.07
1124.1
1125.14
1124.82
1124.56
1124.39
1124.3
1124.31
1126.37
1126.28
1126.29
1126.42
1126.67
1126.27
1126.17
1126.19
1126.32
1126.57
1126.09
1125.99
1126
1126.13
1126.38
1125.83
1125.73
1125.74
1125.87
1126.12
1125.5
1125.4
1125.41
1125.54
1125.78
1125.11
1125
1125.01
1125.14
1125.38
1126.4
1126.3
1126.32
1126.45
1126.69
1126.29
1126.2
1126.21
1126.34
1126.59
1126.12
1126.02
1126.04
1126.17
1126.41
1125.88
1125.77
1125.79
1125.92
1126.16
1125.57
1125.47
1125.48
1125.61
1125.85
1125.23
1125.12
1125.13
1125.25
1125.5
1126.51
1126.41
1126.43
1126.56
1126.8
1126.71
1126.61
1126.63
1126.76
1127
1126.39
1126.3
1126.31
1126.44
1126.69
1126.58
1126.48
1126.5
1126.63
1126.88
1126.19
1126.09
1126.11
1126.24
1126.49
1126.36
1126.26
1126.28
1126.41
1126.65
1125.9
1125.8
1125.82
1125.95
1126.19
1126.03
1125.93
1125.94
1126.07
1126.32
1125.53
1125.43
1125.44
1125.57
1125.82
1125.63
1125.52
1125.54
1125.66
1125.91
1125.11
1125
1125.01
1125.14
1125.38
1125.2
1125.09
1125.1
1125.23
1125.47
1124.7
1124.59
1124.59
1124.71
1124.96
1124.33
1124.21
1124.2
1124.31
1124.55
1124.03
1123.9
1123.87
1123.98
1124.21
1123.83
1123.67
1123.63
1123.72
1123.95
1123.74
1123.56
1123.5
1123.58
1123.8
1123.75
1123.55
1123.48
1123.54
1123.75
1124.88
1124.76
1124.76
1124.88
1125.13
1124.55
1124.43
1124.42
1124.54
1124.78
1124.28
1124.15
1124.13
1124.24
1124.47
1124.09
1123.95
1123.92
1124.01
1124.24
1124
1123.84
1123.79
1123.88
1124.1
1123.99
1123.82
1123.76
1123.84
1124.06
1124.11
1124.04
1124.55
1124.96
1124.99
1125.08
1124.71
1123.86
1123.98
1123.88
1124.25
1124.16
1124.12
1124.36
1124.42
1124.57
1123.83
1123.82
1124.1
1124.13
1123.96
1124
1124.22
1124.27
1124.65
1124.64
1124.34
1124.33
1123.96
1123.93
1123.81
1123.89
1123.93
1123.82
1124.19
1124.51
1124.12
1123.55
1123.26
1123.14
1123.16
1123.31
1123.63
1123.39
1123.28
1123.32
1123.52
1124.28
1124.16
1124.16
1124.27
1124.52
1124.7
1124.59
1124.59
1124.72
1124.96
1124.73
1124.62
1124.62
1124.74
1124.98
1124.83
1124.71
1124.72
1124.84
1125.09
1124.44
1124.33
1124.32
1124.44
1124.69
1123.37
1123.11
1123
1123.03
1123.18
1123.5
1123.26
1123.16
1123.2
1123.37
1123.53
1123.32
1123.24
1123.3
1123.51
1123.82
1123.6
1123.53
1123.58
1123.78
1123.86
1123.71
1123.67
1123.76
1123.99
1123.79
1123.61
1123.56
1123.63
1123.85
1124.07
1123.93
1123.91
1124.01
1124.24
1124.12
1123.98
1123.94
1124.04
1124.27
1124.28
1124.15
1124.13
1124.23
1124.47
1123.34
1123.09
1122.99
1123.02
1123.18
1123.49
1123.3
1123.23
1123.3
1123.52
1123.81
1123.66
1123.63
1123.73
1123.96
1123.84
1123.7
1123.67
1123.77
1124.01
1123.65
1123.49
1123.45
1123.54
1123.77
1123.7
1123.55
1123.52
1123.62
1123.85
1123.94
1123.8
1123.78
1123.89
1124.12
1123.99
1123.86
1123.85
1123.96
1124.2
1124.37
1124.25
1124.24
1124.35
1124.59
1124.37
1124.25
1124.25
1124.36
1124.61
1124.06
1123.92
1123.91
1124.01
1124.25
1124.06
1123.93
1123.91
1124.02
1124.26
1123.43
1123.17
1123.06
1123.08
1123.24
1123.55
1123.34
1123.25
1123.31
1123.51
1123.39
1123.17
1123.07
1123.11
1123.3
1123.56
1123.38
1123.32
1123.4
1123.62
1123.62
1123.46
1123.41
1123.5
1123.73
1123.48
1123.28
1123.21
1123.28
1123.49
1123.91
1123.77
1123.75
1123.86
1124.09
1124.24
1124.12
1124.12
1124.23
1124.47
1123.83
1123.69
1123.67
1123.77
1124
1124.24
1124.02
1123.93
1123.97
1124.13
1124.43
1124.25
1124.27
1123.82
1123.81
1124.29
1124.32
1123.83
1123.85
1124.71
1125.2
1124.72
1125.15
1124.76
1124.74
1125.07
1124.24
1124.26
1123.8
1123.79
1124.28
1124.32
1123.82
1123.84
1124.74
1125.26
1124.74
1125.2
1124.79
1124.75
1125.11
1124.25
1124.27
1123.8
1123.79
1124.29
1124.33
1123.82
1123.84
1124.77
1125.39
1124.77
1125.31
1124.81
1124.77
1125.21
1124.33
1124.36
1123.87
1123.86
1124.38
1124.42
1123.89
1123.92
1124.89
1125.54
1124.88
1125.46
1124.92
1124.87
1125.33
1124.48
1124.5
1124.02
1124.01
1124.53
1124.57
1124.04
1124.07
1125.04
1125.65
1125.03
1125.58
1125.06
1125.02
1125.46
1124.75
1124.77
1124.3
1124.28
1124.78
1124.82
1124.31
1124.34
1125.28
1125.84
1125.26
1125.78
1125.28
1125.24
1125.65
1123.11
1123.11
1123.43
1123.43
1123.12
1123.12
1123.43
1123.44
1122.88
1122.71
1122.89
1122.73
1122.9
1122.93
1122.79
1123.09
1123.09
1123.41
1123.41
1123.11
1123.12
1123.42
1123.43
1122.85
1122.71
1122.87
1122.74
1122.89
1122.92
1122.8
1123.09
1123.09
1123.4
1123.4
1123.11
1123.13
1123.42
1123.44
1122.87
1122.77
1122.89
1122.8
1122.92
1122.95
1122.85
1123.16
1123.17
1123.48
1123.47
1123.19
1123.21
1123.49
1123.51
1122.96
1122.91
1122.99
1122.93
1123.02
1123.07
1122.98
1123.32
1123.33
1123.63
1123.62
1123.36
1123.39
1123.65
1123.67
1123.14
1123.11
1123.17
1123.13
1123.2
1123.25
1123.17
1123.61
1123.62
1123.91
1123.9
1123.64
1123.67
1123.93
1123.94
1123.43
1123.37
1123.46
1123.39
1123.49
1123.53
1123.43
1126.73
1126.65
1126.5
1126.38
1126.17
1126.05
1125.71
1125.61
1125.79
1125.68
1126.16
1126.04
1126.42
1126.31
1126.63
1126.55
1126.08
1125.93
1125.87
1125.65
1125.52
1125.32
1125.33
1125.07
1127.02
1127.5
1126.94
1127.38
1126.81
1127.27
1126.68
1127.11
1126.36
1126.6
1126.13
1126.44
1127
1126.73
1125.61
1125.22
1125.4
1125.11
1125.1
1124.77
1124.85
1124.6
1126.09
1125.68
1125.86
1125.55
1126.47
1126.08
1128.05
1128.37
1127.82
1128.15
1127.82
1128.22
1127.55
1127.92
1127.49
1128.04
1127.08
1127.59
1126.77
1127.27
1126.42
1126.93
1125.97
1125.91
1125.64
1125.61
1125.23
1125.14
1124.96
1124.87
1126.28
1126.39
1126.68
1126.71
1125.35
1125.36
1125.09
1125.15
1124.73
1124.65
1124.5
1124.46
1125.96
1126.12
1125.67
1125.91
1126.91
1127.53
1127.16
1127.85
1127.35
1127.98
1127.5
1128.22
1126.56
1127.15
1126.88
1127.56
1126.24
1126.82
1126.66
1127.33
1128.82
1129.53
1128.93
1129.64
1128.6
1129.26
1128.82
1129.49
1128.25
1128.75
1128.63
1129.18
1126.46
1125.57
1127.26
1127.86
1128.51
1125.69
1126.62
1127.57
1128.22
1128.93
1125.47
1126.3
1127.11
1127.87
1128.62
1130.19
1130.5
1130.56
1130.84
1129.85
1130.21
1130.33
1130.63
1129.27
1129.67
1129.95
1130.31
1125.88
1126.2
1126.9
1127.34
1127.84
1128.3
1128.59
1129.05
1129.59
1130.05
1125.61
1125.87
1126.55
1127.01
1127.42
1127.95
1128.29
1128.87
1129.39
1130
1126.13
1126.65
1125.76
1126.22
1125.22
1125.36
1124.89
1124.96
1126.69
1127.31
1127.05
1127.71
1125.44
1125.91
1125.24
1125.68
1124.62
1124.69
1124.43
1124.47
1126.35
1126.99
1126.15
1126.77
1127.74
1128.5
1129.05
1129.97
1128.03
1128.83
1129.24
1130.15
1127.47
1128.2
1128.86
1129.77
1127.21
1127.95
1128.59
1129.45
1130.58
1130.69
1130.94
1130.65
1130.68
1130.9
1130.36
1130.51
1130.77
1130.48
1130.53
1130.77
1129.92
1130.12
1130.42
1130.24
1130.32
1130.59
1126.59
1127.04
1127.52
1127.8
1128.19
1128.61
1128.73
1129.06
1129.43
1129.39
1129.67
1130.02
1130.05
1130.17
1130.49
1126.23
1126.73
1127.27
1127.62
1128.14
1128.68
1128.57
1129.02
1129.5
1129.34
1129.67
1130.09
1130.04
1130.2
1130.57
1124.52
1124.36
1124.38
1124.17
1124.97
1124.77
1124.81
1124.56
1124.41
1124.06
1124.37
1124.05
1124.31
1124
1124.24
1123.95
1124.02
1124.15
1123.94
1124.09
1123.94
1123.83
1124.01
1123.82
1124.36
1124.15
1123.93
1123.75
1123.81
1123.64
1123.77
1123.6
1123.71
1123.39
1123.77
1123.47
1123.66
1123.34
1123.68
1123.38
1123.63
1123.28
1123.56
1123.23
1123.5
1123.21
1123.36
1123.11
1124.13
1123.99
1123.95
1123.79
1124.61
1124.48
1124.39
1124.26
1123.64
1123.45
1123.8
1123.62
1123.77
1123.61
1123.59
1123.46
1124.19
1124.06
1123.99
1123.89
1123.48
1123.29
1123.32
1123.16
1123.38
1123.09
1123.22
1123.04
1123.51
1123.2
1123.37
1123.17
1123.25
1123
1123.09
1122.93
1123.11
1122.89
1122.97
1122.84
1123.71
1123.84
1123.42
1123.57
1123.7
1123.85
1123.4
1123.55
1123.7
1123.84
1123.37
1123.51
1124.26
1124.82
1123.91
1123.63
1123.33
1124.93
1124.37
1124.04
1123.77
1123.45
1124.72
1124.18
1123.79
1123.52
1123.3
1124.09
1124.44
1123.82
1124.15
1124.08
1124.4
1123.78
1124.1
1124.03
1124.34
1123.71
1124.01
1125.07
1125.33
1124.48
1124.74
1124.14
1124.41
1123.88
1124.16
1123.59
1123.87
1124.81
1124.95
1124.25
1124.4
1123.87
1124.05
1123.62
1123.85
1123.43
1123.71
1123.95
1123.99
1123.74
1123.73
1124.46
1124.48
1124.21
1124.16
1123.44
1123.5
1123.62
1123.73
1123.59
1123.52
1123.43
1123.35
1124.02
1123.92
1123.84
1123.73
1123.3
1123.32
1123.16
1123.17
1123.25
1123.39
1123.16
1123.38
1123.41
1123.6
1123.28
1123.54
1123.12
1123.22
1123.05
1123.24
1123.01
1123.1
1122.95
1123.12
1124.91
1125.37
1125.81
1124.74
1125.26
1125.7
1124.84
1125.32
1125.77
1124.66
1125.19
1125.65
1124.76
1125.22
1125.68
1124.54
1125.1
1125.59
1125.68
1126.13
1126.61
1125.11
1125.57
1126.07
1124.79
1125.27
1125.78
1124.56
1125.04
1125.53
1124.41
1124.99
1125.53
1125.23
1125.72
1126.26
1124.69
1125.18
1125.74
1124.39
1124.91
1125.48
1124.25
1124.8
1125.38
1124.27
1124.89
1125.48
1123.25
1123.43
1123.95
1124.92
1123.34
1123.54
1124.07
1125.05
1123.21
1123.4
1123.92
1124.9
1123.27
1123.48
1124.02
1125
1123.16
1123.37
1123.86
1124.81
1123.14
1123.37
1123.9
1124.87
1123.16
1123.42
1123.99
1124.98
1123.1
1123.39
1123.99
1124.99
1123.05
1123.29
1123.81
1124.77
1123.06
1123.33
1123.8
1124.67
1123.13
1123.35
1123.82
1124.71
1123.16
1123.39
1123.83
1124.64
1122.98
1123.25
1123.81
1124.81
1122.98
1123.27
1123.77
1124.66
1122.91
1123.21
1123.79
1124.78
1122.91
1123.22
1123.74
1124.62
1123.26
1123.43
1123.9
1124.81
1123.39
1123.52
1123.92
1124.72
1123.25
1123.42
1123.88
1124.79
1123.38
1123.52
1123.92
1124.71
1123.24
1123.42
1123.87
1124.74
1123.36
1123.51
1123.91
1124.69
1123.24
1123.43
1123.85
1124.68
1123.33
1123.51
1123.9
1124.66
1123.25
1123.46
1123.86
1124.62
1123.57
1123.68
1124.04
1124.61
1123.78
1123.88
1124.25
1124.78
1123.55
1123.67
1124.03
1124.6
1123.76
1123.87
1124.24
1124.77
1123.51
1123.65
1124.02
1124.59
1123.72
1123.85
1124.23
1124.76
1123.45
1123.62
1123.99
1124.57
1123.66
1123.82
1124.21
1124.75
1123.37
1123.57
1123.96
1124.54
1123.59
1123.78
1124.19
1124.74
1123.22
1123.49
1123.92
1124.52
1123.42
1123.68
1124.13
1124.69
1123.29
1123.53
1123.94
1124.53
1123.51
1123.74
1124.16
1124.71
1123.15
1123.44
1123.9
1124.51
1123.34
1123.64
1124.1
1124.67
1123.08
1123.4
1123.87
1124.49
1123.27
1123.59
1124.07
1124.65
1126.41
1127.61
1128.64
1129.49
1130.14
1126.49
1127.68
1128.71
1129.55
1130.2
1126.4
1127.61
1128.64
1129.49
1130.14
1126.47
1127.67
1128.7
1129.54
1130.19
1126.38
1127.6
1128.64
1129.48
1130.14
1126.42
1127.62
1128.65
1129.5
1130.15
1126.45
1127.65
1128.69
1129.53
1130.19
1126.43
1127.64
1128.68
1129.52
1130.18
1126.37
1127.6
1128.63
1129.48
1130.13
1126.43
1127.69
1128.73
1129.57
1130.23
1126.39
1127.62
1128.66
1129.5
1130.15
1126.45
1127.71
1128.75
1129.59
1130.25
1126.37
1127.6
1128.63
1129.48
1130.14
1126.44
1127.7
1128.74
1129.59
1130.24
1126.35
1127.58
1128.63
1129.47
1130.13
1126.44
1127.7
1128.74
1129.59
1130.25
1126.42
1127.64
1128.68
1129.52
1130.17
1126.51
1127.75
1128.78
1129.63
1130.28
1126.42
1127.64
1128.68
1129.52
1130.18
1126.5
1127.75
1128.79
1129.63
1130.28
1126.42
1127.65
1128.69
1129.53
1130.19
1126.5
1127.75
1128.79
1129.64
1130.29
1126.44
1127.69
1128.73
1129.58
1130.23
1126.52
1127.77
1128.81
1129.66
1130.31
1126.5
1127.75
1128.79
1129.63
1130.29
1132.1
1132.31
1132.01
1132.22
1131.84
1132.08
1131.63
1131.91
1131.43
1131.74
1131.11
1131.48
1131.28
1131.63
1130.95
1131.3
1130.78
1131.1
1134.41
1136.95
1139.09
1140.77
1141.92
1134.37
1136.92
1139.09
1140.78
1141.95
1134.36
1136.92
1139.08
1140.76
1141.91
1134.33
1136.91
1139.08
1140.78
1141.94
1134.28
1136.88
1139.05
1140.73
1141.89
1134.25
1136.86
1139.05
1140.76
1141.93
1134.17
1136.81
1139
1140.7
1141.86
1134.15
1136.81
1139.01
1140.73
1141.9
1134.05
1136.73
1138.94
1140.66
1141.82
1134.04
1136.74
1138.96
1140.69
1141.87
1133.77
1136.52
1138.79
1140.53