/*--------------------------------*- C++ -*----------------------------------*\
  =========                 |
  \\      /  F ield         | OpenFOAM: The Open Source CFD Toolbox
   \\    /   O peration     | Website:  https://openfoam.org
    \\  /    A nd           | Version:  13
     \\/     M anipulation  |
\*---------------------------------------------------------------------------*/
FoamFile
{
    format      ascii;
    class       volScalarField;
    location    "389.831886";
    object      T;
}
// * * * * * * * * * * * * * * * * * * * * * * * * * * * * * * * * * * * * * //

dimensions      [0 0 0 1 0 0 0];

internalField   nonuniform List<scalar> 
5712
(
1151.41
1152.1
1153.32
1154.18
1154.6
1155.5
1154.92
1155.75
1152.67
1153.95
1152.22
1153.41
1151.3
1152.34
1150.08
1150.92
1156.85
1159.24
1158.45
1161.43
1157.63
1160.49
1159.37
1162.83
1151.94
1151.98
1152.48
1152.14
1153.91
1153.79
1154.61
1154.03
1157.91
1156.43
1160.15
1158.18
1155.92
1156.88
1159.08
1160.95
1162.52
1163.59
1160.26
1162.12
1164.02
1165.1
1158.25
1159.77
1160.92
1161.81
1156.84
1158.1
1152.06
1150.07
1151.06
1148.5
1153.77
1151.46
1152.81
1150.04
1156.25
1153.57
1156.69
1153.31
1156.65
1152.93
1157.35
1153.41
1161.27
1162.8
1163.2
1164.37
1162.78
1164.31
1164.69
1165.99
1161.58
1162.51
1159.9
1161.23
1164.43
1165.35
1165.39
1165.99
1165.93
1167.01
1166.88
1167.67
1162.66
1163.36
1163.56
1163.92
1159.6
1155.77
1160.09
1156.41
1158.55
1155.18
1159.17
1155.74
1160.33
1156.25
1160.76
1156.93
1161.08
1156.83
1161.23
1157.32
1150.56
1150.06
1150
1150.07
1152.15
1151.36
1151.22
1151.14
1154.38
1153.49
1152.98
1152.81
1158.86
1160.32
1157.77
1157.34
1154.65
1159.29
1157.62
1156.09
1156.2
1154.26
1161.79
1160.51
1159.5
1158.09
1155.12
1150.03
1149.49
1151.18
1151.31
1150.92
1150.12
1151.86
1151.89
1152.58
1151.43
1152.95
1152.66
1158.42
1156.63
1156.68
1154.49
1155.69
1153.8
1155.69
1154.31
1153.97
1153.05
1161.52
1160.82
1159.89
1158.24
1158.72
1156.82
1157.23
1155.29
1154.29
1152.42
1162.16
1158.88
1163.63
1160.29
1164.38
1163.39
1166.02
1164.95
1161.24
1157.24
1160.11
1156.3
1164.6
1161.17
1165.08
1161.55
1166.95
1165.69
1167.45
1166.03
1162.11
1157.95
1162.54
1158.27
1158.41
1154.35
1154.55
1150.75
1157.73
1153.79
1154.25
1150.7
1158.99
1154.91
1154.84
1150.98
1159.53
1155.2
1155.37
1151.53
1148.02
1145.53
1141.15
1149.66
1147.18
1142.85
1148.6
1146.14
1141.76
1150.26
1147.81
1143.37
1149.88
1147.62
1143.26
1150.9
1148.32
1143.65
1154.79
1152.41
1147.65
1152.22
1149.95
1145.4
1151.71
1149.28
1144.68
1152.54
1150.11
1145.47
1150.73
1147.83
1142.72
1159.06
1155.97
1150.36
1155.06
1151.81
1146.24
1153.45
1150.27
1144.86
1152.01
1148.85
1143.49
1148.47
1145.18
1139.7
1159.69
1162.18
1161.17
1164.22
1158.6
1161.51
1160.29
1163.77
1156.9
1159.3
1157.38
1159.32
1158.68
1160.59
1159.3
1160.76
1162.49
1161.15
1164.43
1162.71
1162.14
1162.95
1165.15
1166.06
1164.93
1165.94
1162.52
1163.6
1164.96
1165.63
1162.56
1163.42
1162.63
1165.34
1161.23
1163.28
1163.47
1166.01
1162.34
1164.2
1164.64
1166.98
1164.72
1166.26
1164.16
1165.04
1164.49
1164.87
1164.93
1166.89
1166.53
1168.28
1164.02
1165.71
1165.82
1167.32
1166.97
1168.92
1165.7
1167.86
1167.56
1169.13
1168.39
1169.71
1166.98
1168.29
1167.89
1168.93
1167.78
1169.6
1168.48
1170.08
1167.5
1168.27
1169.18
1168.97
1166.85
1168.03
1168.42
1168.46
1167.89
1168.3
1169.69
1169.3
1168.37
1168.44
1170.05
1169.52
1162.36
1161.62
1165.9
1165.31
1162.88
1162.01
1166.27
1165.58
1163.77
1162.97
1166.81
1166.17
1163.34
1161.9
1164.44
1166.06
1167.54
1160.92
1162.24
1163.03
1164.97
1166.87
1163.4
1165.01
1166.47
1167.47
1167.84
1160.28
1158.3
1163.79
1161.53
1160.78
1158.92
1164.26
1162.19
1161.88
1160.2
1165.1
1163.31
1160.23
1158.73
1161.81
1160.34
1163
1161.56
1164.7
1163.27
1166.26
1164.62
1163.36
1163.15
1165.04
1164.8
1166.44
1165.98
1167.24
1166.31
1167.24
1165.52
1167.55
1167.56
1168.84
1168.85
1166.23
1166.2
1167.76
1167.72
1169.33
1169.03
1168.34
1167.99
1169.51
1169.44
1169.93
1169.71
1168.56
1168.41
1169.04
1168.73
1169.9
1169.54
1170.24
1169.74
1169.26
1168.33
1168.2
1166.35
1168.52
1167.5
1167.82
1165.89
1169.68
1168.76
1168.42
1166.57
1169.94
1168.92
1168.64
1166.85
1155.38
1152.14
1147.38
1157.48
1153.87
1149.13
1156.23
1153.03
1148.29
1158.42
1154.91
1150.04
1157.94
1155.07
1150.39
1159.88
1156.3
1151.2
1157.13
1154.74
1149.92
1158.76
1156.27
1151.45
1159.84
1157.07
1152.13
1161.33
1158.51
1153.64
1161.21
1157.52
1152.06
1161.93
1159
1153.4
1163.58
1160.65
1155.09
1164.48
1161.37
1155.72
1164.25
1160.97
1155.31
1161.88
1158.21
1152.36
1166.26
1165.71
1163.89
1160.19
1164.09
1163.54
1161.8
1158.35
1166.69
1166.04
1164.14
1160.31
1164.79
1164.14
1162.29
1158.66
1167.26
1166.43
1164.57
1160.78
1166.44
1165.64
1163.73
1159.94
1164.89
1164
1162.15
1158.66
1164.41
1163.41
1161.65
1158.49
1167.78
1166.69
1164.75
1160.92
1167.43
1165.92
1164.17
1160.55
1167.55
1166.46
1164.7
1161.09
1166.99
1165.53
1163.92
1160.47
1167.73
1166.61
1164.56
1160.63
1167.71
1166.16
1164.28
1160.47
1167.7
1166.53
1164.51
1160.74
1167.89
1166.31
1164.37
1160.53
1166.89
1166.29
1164.52
1160.73
1166.02
1165.27
1163.76
1160.15
1166.98
1166.27
1164.5
1160.72
1165.98
1165.14
1163.65
1160.1
1167.02
1166.13
1164.42
1160.74
1166.03
1165.02
1163.54
1160.03
1166.88
1165.72
1164.11
1160.58
1166.02
1164.82
1163.38
1159.94
1166.41
1165
1163.52
1160.19
1163.88
1162.94
1161.61
1158.07
1160.77
1159.68
1157.94
1153.82
1164.04
1163.01
1161.66
1158.13
1160.92
1159.72
1157.95
1153.82
1164.28
1163.09
1161.7
1158.14
1161.14
1159.76
1157.96
1153.85
1164.61
1163.21
1161.77
1158.22
1161.43
1159.83
1157.97
1153.85
1164.97
1163.35
1161.83
1158.28
1161.69
1159.87
1157.95
1153.79
1165.33
1163.43
1161.8
1158.19
1162.32
1160.18
1158.13
1153.88
1165.18
1163.39
1161.82
1158.23
1162.05
1160.04
1158.06
1153.87
1165.4
1163.43
1161.79
1158.17
1162.44
1160.21
1158.15
1153.94
1165.49
1163.46
1161.81
1158.2
1162.52
1160.23
1158.15
1153.96
1155.15
1151.97
1149.34
1146.26
1141.27
1153.79
1150.72
1148.12
1145.04
1140.06
1155.19
1151.99
1149.36
1146.27
1141.29
1153.89
1150.8
1148.19
1145.11
1140.13
1155.33
1152.06
1149.42
1146.33
1141.34
1154.76
1151.64
1149.01
1145.93
1140.95
1153.98
1150.88
1148.26
1145.18
1140.2
1154.05
1150.96
1148.34
1145.26
1140.28
1155.34
1152.07
1149.41
1146.33
1141.34
1153.8
1150.29
1147.61
1144.52
1139.54
1155.08
1151.72
1149.05
1145.96
1140.98
1153.48
1149.94
1147.26
1144.18
1139.2
1155.21
1151.95
1149.3
1146.21
1141.23
1153.5
1150
1147.32
1144.23
1139.26
1155.29
1152.02
1149.37
1146.28
1141.3
1153.35
1149.83
1147.15
1144.06
1139.09
1154.82
1151.45
1148.79
1145.71
1140.73
1152.91
1149.37
1146.7
1143.62
1138.64
1154.75
1151.37
1148.71
1145.62
1140.64
1152.88
1149.33
1146.65
1143.57
1138.6
1154.55
1151.12
1148.45
1145.36
1140.38
1152.73
1149.16
1146.48
1143.4
1138.43
1153.83
1150.3
1147.62
1144.53
1139.55
1152.29
1148.71
1146.03
1142.94
1137.98
1152.66
1149.1
1146.42
1143.34
1138.37
1147.77
1147.44
1147.96
1147.62
1148.28
1147.82
1148.55
1147.93
1148.6
1147.86
1148.65
1147.49
1148.51
1147.47
1148.82
1147.65
1149.02
1147.9
1143.4
1139.63
1136.43
1132.83
1126.95
1142.99
1139.03
1135.69
1132
1126.06
1143.44
1139.64
1136.43
1132.83
1126.95
1143.04
1139.06
1135.71
1132
1126.04
1143.54
1139.69
1136.47
1132.86
1126.98
1143.12
1139.09
1135.73
1132.02
1126.06
1143.62
1139.73
1136.49
1132.88
1127
1143.19
1139.14
1135.76
1132.03
1126.08
1143.61
1139.72
1136.46
1132.85
1126.97
1143.21
1139.15
1135.77
1132.04
1126.08
1143.78
1139.88
1136.6
1132.96
1127.1
1143.23
1139.23
1135.83
1132.09
1126.16
1143.66
1139.76
1136.5
1132.87
1127.01
1143.19
1139.18
1135.79
1132.06
1126.11
1143.92
1139.99
1136.69
1133.04
1127.18
1143.36
1139.33
1135.92
1132.17
1126.25
1144.05
1140.08
1136.76
1133.1
1127.24
1143.51
1139.43
1136
1132.24
1126.31
1163.16
1162.86
1161.1
1161.57
1155.04
1155.69
1156.7
1157.46
1157.12
1157.96
1155.85
1156.69
1153.36
1154.64
1154.09
1155.26
1153.88
1154.84
1153.04
1153.83
1164.28
1163.1
1158.85
1156.89
1153.09
1154.67
1157.16
1162.23
1160.26
1161.15
1157.66
1152.33
1158.72
1158.95
1154.09
1156.61
1155.32
1153.08
1163.32
1162.08
1159.62
1160.04
1161.13
1161.31
1160.48
1159.65
1153.68
1155.89
1157.46
1158.49
1164.14
1162.87
1163.45
1162.4
1162.03
1162.62
1160.37
1158.02
1160.48
1168.04
1169.07
1168.82
1167.27
1163.75
1166.78
1168.05
1167.93
1166.32
1162.54
1162.61
1163.92
1163.73
1161.95
1158.03
1160.63
1161.93
1161.73
1159.95
1156.03
1156.81
1158.12
1157.92
1156.16
1152.26
1158.39
1159.69
1159.49
1157.72
1153.81
1160.91
1162.22
1162.02
1160.25
1156.34
1166.02
1167.33
1167.38
1166.08
1162.74
1164.14
1165.59
1165.74
1164.46
1161.04
1164.92
1166.35
1166.38
1164.85
1161.1
1161.59
1163.06
1163.15
1161.76
1158.22
1156.17
1157.69
1157.79
1156.43
1152.89
1162.51
1163.89
1163.79
1162.11
1158.24
1162.75
1164.17
1164.16
1162.57
1158.76
1157.87
1159.29
1159.27
1157.67
1153.86
1160.38
1161.74
1161.61
1159.89
1156.01
1159.1
1160.48
1160.38
1158.69
1154.84
1156.84
1158.18
1158.04
1156.33
1152.46
1167.13
1168.3
1168.21
1166.77
1163.3
1165.85
1167.23
1167.17
1165.55
1161.73
1163.41
1164.76
1164.64
1162.92
1159.04
1163.81
1165.16
1165
1163.27
1159.37
1164.91
1166.27
1166.15
1164.45
1160.57
1165.09
1166.43
1166.28
1164.55
1160.65
1164.25
1165.58
1165.4
1163.64
1159.72
1163.42
1164.75
1164.57
1162.81
1158.9
1157.42
1158.75
1158.57
1156.82
1152.93
1159.63
1160.95
1160.76
1159
1155.09
1161.23
1162.57
1162.41
1160.68
1156.78
1162.26
1163.59
1163.42
1161.67
1157.76
1167.9
1168.99
1168.79
1167.27
1163.75
1166.58
1167.89
1167.77
1166.14
1162.32
1167.25
1168.48
1168.37
1166.8
1163.08
1166.16
1167.49
1167.36
1165.67
1161.8
1165.8
1167.14
1167
1165.28
1161.39
1166.37
1167.72
1167.64
1166.02
1162.19
1164.14
1165.47
1165.3
1163.54
1159.62
1161.77
1163.09
1162.91
1161.14
1157.22
1164.25
1165.59
1165.43
1163.69
1159.78
1166.5
1163.75
1166.82
1164.01
1167.79
1164.9
1167.47
1164.71
1167.3
1167.71
1165.25
1166.77
1168.37
1168.85
1166.37
1168.03
1165.18
1163.41
1162.48
1160.71
1165.55
1164.03
1162.77
1161.2
1164.09
1165.99
1165.49
1166.52
1164.77
1162.71
1163.03
1162.24
1165.58
1164.58
1164.21
1163.4
1166.94
1166.05
1161.99
1161.04
1164.08
1162.88
1160.48
1159.37
1160.98
1157.58
1158.26
1154.87
1161.86
1158.17
1158.9
1155.41
1163.33
1159.15
1161.65
1157.5
1159.73
1155.57
1158.41
1154.32
1167.49
1167.15
1167.14
1167
1168.86
1168.78
1168.52
1168.65
1165.47
1164.93
1165.91
1165.11
1166.6
1166.77
1166.05
1166.43
1168.02
1168.43
1167.51
1168.11
1164.85
1164.69
1164.25
1164.34
1163.14
1158.79
1162.24
1158.32
1163.68
1159.36
1162.46
1158.58
1162.41
1158.08
1161.97
1158.03
1161.75
1157.44
1161.62
1157.68
1162.41
1162.85
1159.03
1159.54
1163.11
1163.35
1159.37
1159.73
1163.96
1164.08
1159.77
1159.97
1167.51
1168.9
1166
1163.91
1159.71
1168.86
1167.57
1166.08
1164.09
1159.91
1168.78
1167.19
1165.21
1162.65
1158.86
1162.53
1161.25
1158.99
1157.4
1163.01
1161.74
1159.15
1157.6
1163.7
1162.49
1159.32
1157.75
1168.55
1167.42
1167.14
1165.85
1165.56
1164.32
1163.43
1162.22
1158.9
1157.17
1168.47
1167.17
1166.58
1164.62
1164.42
1162.22
1161.75
1159.52
1157.71
1155.51
1166.03
1162.62
1165.83
1162.41
1168.36
1166.86
1168.22
1166.85
1163.29
1159.26
1163.55
1159.66
1165.74
1162.25
1165.43
1161.87
1168.07
1166.65
1167.79
1166.32
1163.21
1159.01
1162.89
1158.59
1160.19
1156.09
1156.04
1152.19
1160.6
1156.57
1156.57
1152.91
1159.98
1155.86
1155.68
1151.79
1159.86
1155.51
1155.63
1151.78
1158.76
1155.58
1154.67
1151.54
1159.49
1156.17
1154.92
1151.7
1160.3
1156.54
1155.06
1151.35
1165.21
1160.96
1163.41
1159.19
1162.01
1157.93
1159.87
1155.58
1154.34
1149.98
1164.72
1159.98
1161.19
1156.35
1158.6
1153.87
1155.86
1151.16
1151.37
1146.55
1169.5
1170.06
1167.48
1169.13
1169.09
1169.66
1167.1
1168.83
1168.77
1168.81
1166.12
1166.21
1169.14
1169.19
1166.45
1166.55
1167.87
1169.69
1169.1
1170.13
1169.62
1167.74
1167.95
1166.97
1167.76
1166.87
1165.77
1164.71
1167.71
1166.55
1165.53
1164.45
1168.71
1168.42
1166.14
1165.95
1169.15
1168.83
1166.54
1166.48
1169.84
1169.46
1168.36
1168.15
1166.43
1166.27
1165.27
1165.3
1170.4
1170.58
1170.02
1170.51
1169.85
1169.94
1169.5
1169.84
1170.12
1170.74
1170.54
1170.77
1169.48
1170.33
1168.98
1170.08
1169
1169.63
1168.5
1169.35
1169.55
1170.6
1169.04
1170.39
1169.99
1169.61
1170.57
1169.82
1170.44
1169.87
1170.56
1169.71
1169.35
1169.13
1170.46
1169.8
1168.84
1168.72
1170.29
1169.68
1169.86
1169.81
1169.44
1169.13
1170.07
1169.91
1169.57
1169.16
1170.3
1170.15
1169.7
1169.29
1170.49
1169.91
1170.64
1170.52
1169.75
1169.83
1170.39
1170.5
1170.33
1169.38
1169.92
1170.52
1170.68
1170.42
1169.47
1168.74
1166.53
1167.69
1165.1
1169.02
1167.01
1167.91
1165.49
1169.48
1167.78
1168.28
1166.15
1169.6
1168.55
1170.19
1169.11
1170.21
1169
1169.86
1168.41
1168.63
1166.74
1169.76
1168.84
1170.37
1169.45
1170.45
1169.36
1170.03
1168.58
1168.8
1166.88
1170.6
1169.98
1170.58
1170.23
1169.9
1169.27
1169.81
1169.39
1170.74
1170.14
1170.68
1169.81
1170.43
1170.16
1170.22
1169.93
1169.6
1169.26
1169.36
1168.99
1170.65
1170.14
1170.47
1169.92
1170.3
1169.17
1168.9
1167
1170.21
1168.79
1168.88
1166.83
1170.26
1169.24
1168.82
1166.95
1170.13
1169.07
1168.77
1166.97
1163.38
1159.94
1160.85
1156.88
1164.18
1160.58
1161.41
1157.35
1165.21
1161.3
1162.3
1157.76
1166.45
1162.25
1166.96
1162.8
1166.81
1162.68
1165.96
1161.63
1163.03
1157.95
1166.81
1162.12
1167.4
1162.7
1167.11
1162.3
1165.85
1160.89
1162.89
1157.44
1167.55
1166.3
1164.2
1160.37
1165.25
1164.08
1162.09
1158.52
1167.88
1166.59
1164.43
1160.48
1165.81
1164.62
1162.55
1158.81
1168.29
1166.92
1164.84
1160.94
1167.26
1166.03
1163.94
1160.07
1165.42
1164.26
1162.29
1158.75
1164.61
1163.5
1161.7
1158.52
1168.41
1167.01
1164.94
1161.03
1167.89
1166.17
1164.33
1160.65
1168.39
1166.88
1164.94
1161.24
1167.65
1165.89
1164.13
1160.6
1168.13
1166.82
1164.68
1160.71
1167.99
1166.32
1164.38
1160.54
1167.84
1166.6
1164.55
1160.77
1167.98
1166.36
1164.41
1160.56
1168.33
1166.93
1164.86
1160.93
1167.56
1165.97
1164.13
1160.37
1168.33
1166.89
1164.83
1160.92
1167.44
1165.81
1164.01
1160.32
1168.22
1166.7
1164.73
1160.92
1167.32
1165.63
1163.88
1160.23
1167.88
1166.22
1164.39
1160.74
1167.13
1165.37
1163.68
1160.12
1167.25
1165.44
1163.78
1160.35
1165.47
1163.67
1162
1158.32
1162.36
1160.41
1158.34
1154.1
1165.53
1163.7
1162.03
1158.37
1162.41
1160.43
1158.34
1154.09
1165.6
1163.72
1162.04
1158.37
1162.45
1160.4
1158.31
1154.1
1165.7
1163.76
1162.08
1158.42
1162.52
1160.4
1158.3
1154.08
1165.81
1163.8
1162.1
1158.46
1162.55
1160.34
1158.23
1154
1165.75
1163.68
1161.96
1158.3
1162.77
1160.45
1158.3
1154.01
1165.8
1163.74
1162.03
1158.38
1162.7
1160.41
1158.28
1154.04
1165.66
1163.58
1161.89
1158.25
1162.7
1160.37
1158.25
1154.02
1165.57
1163.51
1161.84
1158.22
1162.6
1160.29
1158.19
1153.98
1155.25
1152.03
1149.38
1146.28
1141.29
1153.88
1150.78
1148.15
1145.06
1140.08
1155.29
1152.05
1149.39
1146.29
1141.3
1153.97
1150.85
1148.22
1145.13
1140.15
1155.41
1152.11
1149.45
1146.35
1141.36
1154.83
1151.68
1149.04
1145.95
1140.96
1154.03
1150.91
1148.27
1145.19
1140.2
1154.07
1150.97
1148.35
1145.26
1140.28
1155.41
1152.1
1149.44
1146.34
1141.35
1153.85
1150.32
1147.63
1144.53
1139.55
1155.16
1151.76
1149.08
1145.98
1140.99
1153.55
1149.98
1147.29
1144.19
1139.21
1155.25
1151.98
1149.32
1146.22
1141.24
1153.54
1150.02
1147.33
1144.24
1139.27
1155.3
1152.03
1149.38
1146.29
1141.3
1153.36
1149.83
1147.15
1144.06
1139.09
1154.92
1151.52
1148.83
1145.74
1140.75
1153.02
1149.43
1146.74
1143.64
1138.66
1154.85
1151.43
1148.74
1145.64
1140.66
1152.98
1149.39
1146.69
1143.6
1138.62
1154.64
1151.17
1148.48
1145.38
1140.4
1152.82
1149.22
1146.52
1143.42
1138.45
1153.91
1150.35
1147.65
1144.55
1139.57
1152.38
1148.76
1146.06
1142.96
1137.99
1152.74
1149.15
1146.45
1143.36
1138.38
1152.18
1151.44
1152.08
1151.34
1151.87
1151.09
1151.5
1150.69
1150.86
1150.12
1149.73
1148.65
1150.13
1149.2
1149.45
1148.32
1149.22
1148.11
1145.77
1141.05
1137.41
1133.59
1127.61
1145.39
1140.48
1136.68
1132.76
1126.72
1145.7
1141.02
1137.39
1133.57
1127.59
1145.32
1140.45
1136.67
1132.74
1126.68
1145.59
1140.97
1137.36
1133.56
1127.59
1145.2
1140.39
1136.64
1132.72
1126.67
1145.4
1140.87
1137.3
1133.52
1127.55
1145.01
1140.31
1136.59
1132.68
1126.64
1145.06
1140.68
1137.16
1133.4
1127.45
1144.75
1140.17
1136.5
1132.61
1126.58
1144.55
1140.42
1137
1133.28
1127.38
1144.09
1139.83
1136.28
1132.45
1126.47
1144.76
1140.52
1137.06
1133.32
1127.39
1144.41
1140.01
1136.39
1132.54
1126.52
1144.38
1140.31
1136.94
1133.24
1127.36
1143.87
1139.7
1136.19
1132.39
1126.45
1144.2
1140.19
1136.84
1133.17
1127.29
1143.67
1139.55
1136.09
1132.31
1126.37
1164.35
1164.12
1164.95
1165.23
1168.57
1165.85
1168.94
1166.15
1168.48
1165.6
1168.14
1165.39
1152.52
1152.65
1152.96
1153.5
1154.35
1155.55
1151
1151.13
1151.43
1151.93
1152.64
1153.55
1151.09
1147.93
1151.23
1148.08
1151.58
1148.48
1152.24
1149.31
1153.34
1150.57
1154.94
1152.11
1156.99
1158.37
1159.49
1160.35
1160.98
1161.36
1154.58
1155.6
1156.48
1157.19
1157.69
1157.99
1156.22
1157.5
1157.29
1155.5
1151.6
1156.36
1157.64
1157.42
1155.64
1151.73
1156.67
1157.95
1157.73
1155.95
1152.04
1157.21
1158.5
1158.29
1156.5
1152.59
1158.07
1159.36
1159.15
1157.37
1153.45
1159.28
1160.57
1160.36
1158.58
1154.67
1154.7
1155.98
1155.76
1153.98
1150.09
1154.83
1156.11
1155.9
1154.12
1150.22
1155.14
1156.42
1156.2
1154.42
1150.52
1155.63
1156.92
1156.7
1154.92
1151.02
1156.35
1157.63
1157.42
1155.64
1151.74
1157.26
1158.56
1158.35
1156.57
1152.67
1154.79
1156.06
1155.85
1154.07
1150.17
1151.61
1152.88
1152.67
1150.9
1147.01
1154.93
1156.21
1155.99
1154.21
1150.31
1151.77
1153.04
1152.83
1151.05
1147.17
1155.28
1156.56
1156.34
1154.56
1150.66
1152.17
1153.44
1153.23
1151.46
1147.57
1155.94
1157.23
1157.01
1155.23
1151.33
1153
1154.28
1154.06
1152.29
1148.4
1157.06
1158.34
1158.13
1156.35
1152.45
1154.27
1155.55
1155.34
1153.57
1149.67
1158.67
1159.96
1159.75
1157.97
1154.06
1155.82
1157.12
1156.91
1155.14
1151.24
1160.73
1162.03
1161.83
1160.05
1156.13
1162.12
1163.43
1163.24
1161.46
1157.54
1163.25
1164.57
1164.39
1162.63
1158.71
1164.1
1165.43
1165.27
1163.53
1159.62
1164.72
1166.04
1165.89
1164.18
1160.29
1165.09
1166.4
1166.25
1164.55
1160.69
1158.31
1159.61
1159.4
1157.63
1153.72
1159.33
1160.64
1160.44
1158.67
1154.77
1160.22
1161.54
1161.35
1159.59
1155.68
1160.93
1162.25
1162.07
1160.32
1156.42
1161.44
1162.75
1162.59
1160.85
1156.95
1161.73
1163.04
1162.88
1161.14
1157.26
1152.54
1152.7
1153.05
1153.61
1154.47
1155.68
1151.02
1151.19
1151.52
1152.04
1152.77
1153.7
1151.11
1147.95
1151.29
1148.14
1151.66
1148.57
1152.34
1149.4
1153.43
1150.61
1155.01
1152.16
1157.15
1158.57
1159.75
1160.62
1161.2
1161.45
1154.77
1155.81
1156.71
1157.4
1157.85
1158.05
1156.24
1157.52
1157.3
1155.52
1151.62
1156.41
1157.69
1157.47
1155.69
1151.79
1156.75
1158.04
1157.82
1156.04
1152.13
1157.32
1158.61
1158.39
1156.61
1152.7
1158.19
1159.48
1159.26
1157.48
1153.56
1159.41
1160.7
1160.49
1158.7
1154.78
1154.72
1156
1155.78
1154
1150.1
1154.89
1156.17
1155.95
1154.17
1150.27
1155.22
1156.5
1156.29
1154.51
1150.61
1155.75
1157.03
1156.81
1155.03
1151.13
1156.48
1157.77
1157.55
1155.77
1151.87
1157.42
1158.71
1158.5
1156.72
1152.81
1154.81
1156.08
1155.87
1154.09
1150.19
1151.63
1152.9
1152.69
1150.92
1147.03
1154.99
1156.26
1156.05
1154.27
1150.37
1151.83
1153.1
1152.89
1151.11
1147.23
1155.37
1156.65
1156.43
1154.65
1150.75
1152.26
1153.53
1153.32
1151.54
1147.66
1156.05
1157.33
1157.11
1155.33
1151.43
1153.09
1154.37
1154.15
1152.38
1148.49
1157.14
1158.43
1158.21
1156.43
1152.52
1154.31
1155.59
1155.38
1153.6
1149.71
1158.73
1160.02
1159.81
1158.03
1154.11
1155.87
1157.15
1156.94
1155.16
1151.26
1160.89
1162.18
1161.97
1160.19
1156.26
1162.31
1163.62
1163.41
1161.63
1157.7
1163.49
1164.8
1164.6
1162.83
1158.9
1164.37
1165.68
1165.49
1163.74
1159.82
1164.93
1166.24
1166.07
1164.34
1160.45
1165.17
1166.48
1166.32
1164.62
1160.75
1158.49
1159.78
1159.57
1157.79
1153.88
1159.54
1160.83
1160.63
1158.85
1154.94
1160.44
1161.74
1161.55
1159.78
1155.87
1161.14
1162.44
1162.26
1160.5
1156.59
1161.59
1162.9
1162.72
1160.97
1157.07
1161.78
1163.1
1162.93
1161.19
1157.3
1164.49
1163.24
1159
1156.98
1153.04
1154.67
1157.16
1164.38
1162.63
1162.01
1157.75
1158.36
1158.48
1155.95
1154.24
1152.74
1164.79
1162.78
1159.57
1160.14
1161.45
1161.62
1160.75
1159.77
1153.55
1155.79
1157.16
1158.43
1164.75
1163.23
1164.3
1162.82
1162.44
1163.27
1160.57
1158.01
1160.67
1168.23
1169.23
1168.96
1167.39
1163.86
1166.91
1168.17
1168.03
1166.41
1162.63
1162.75
1164.05
1163.84
1162.05
1158.12
1160.71
1162.01
1161.8
1160.01
1156.09
1156.76
1158.05
1157.84
1156.06
1152.16
1158.39
1159.68
1159.47
1157.69
1153.78
1160.89
1162.19
1161.98
1160.2
1156.27
1167.91
1168.78
1168.44
1166.8
1163.33
1166.14
1166.95
1166.52
1164.77
1161.16
1165.61
1166.81
1166.59
1164.85
1160.97
1161.35
1162.23
1161.78
1159.96
1156.16
1162.06
1163.34
1163.12
1161.34
1157.42
1162.13
1163.35
1163.12
1161.34
1157.43
1159.66
1160.95
1160.74
1158.96
1155.05
1157.94
1159.21
1159
1157.22
1153.32
1156.45
1157.73
1157.52
1155.75
1151.85
1168.44
1169.38
1169.07
1167.43
1163.87
1166.46
1167.71
1167.52
1165.79
1161.9
1163.29
1164.58
1164.37
1162.6
1158.67
1163.88
1165.17
1164.97
1163.19
1159.26
1165.17
1166.46
1166.26
1164.5
1160.58
1165.36
1166.66
1166.47
1164.69
1160.77
1164.49
1165.8
1165.6
1163.82
1159.89
1163.51
1164.81
1164.61
1162.82
1158.89
1157.27
1158.56
1158.35
1156.57
1152.67
1159.52
1160.81
1160.6
1158.82
1154.9
1160.88
1162.17
1161.97
1160.19
1156.27
1162.17
1163.46
1163.26
1161.47
1157.55
1168.47
1169.47
1169.2
1167.62
1164.06
1166.91
1168.19
1168.04
1166.37
1162.54
1168.03
1169.15
1168.93
1167.26
1163.49
1166.55
1167.85
1167.68
1165.95
1162.06
1166.18
1167.48
1167.29
1165.53
1161.62
1166.96
1168.23
1168.06
1166.34
1162.47
1164.32
1165.62
1165.42
1163.64
1159.71
1161.75
1163.05
1162.84
1161.06
1157.13
1164.41
1165.71
1165.51
1163.73
1159.8
1152.12
1156.02
1157.79
1158.01
1156.75
1153.08
1167.54
1167.71
1168.7
1168.5
1167.9
1167.93
1168.95
1169.06
1166.21
1164.52
1166.44
1165.02
1166.6
1166.79
1165.59
1167.91
1167.98
1168.97
1168.87
1168.04
1167.95
1169.08
1169.04
1166.59
1165.05
1166.71
1165.38
1166.72
1166.8
1165.74
1168.22
1168.16
1169.15
1169.17
1168.04
1167.77
1169.08
1168.86
1166.9
1164.99
1166.88
1165.21
1166.66
1166.6
1165.41
1167.67
1167.52
1168.49
1168.59
1167.21
1166.68
1168.27
1167.85
1166.26
1164.04
1166.14
1164.15
1165.7
1165.44
1164.25
1166.02
1165.81
1166.75
1166.9
1165.35
1164.55
1166.44
1165.89
1164.51
1162.05
1164.31
1162.1
1163.72
1163.24
1162.18
1162.09
1161.85
1162.78
1162.95
1161.35
1160.56
1162.43
1161.85
1160.58
1158.35
1160.39
1158.38
1159.81
1159.38
1158.48
1169.56
1169.81
1169.38
1169.16
1170.1
1170.31
1169.67
1169.86
1169.74
1169.89
1169.96
1170.09
1170.28
1170.42
1170.28
1169.91
1170.06
1169.65
1169.52
1170.22
1170.33
1169.8
1169.87
1170.12
1170.15
1170.24
1170.21
1170.39
1170.43
1170.28
1170.16
1170.19
1169.82
1169.8
1170.21
1170.18
1169.8
1169.69
1170.22
1169.71
1170.23
1169.75
1170.19
1170.17
1169.79
1169.51
1169.47
1169.13
1169.19
1169.36
1169.17
1168.99
1168.73
1169.34
1168.28
1169.28
1168.32
1169.1
1168.98
1168.36
1167.75
1167.66
1167.37
1167.47
1167.45
1167.08
1167.16
1166.79
1167.35
1165.85
1167.24
1165.91
1166.97
1166.74
1166.05
1163.72
1163.62
1163.37
1163.5
1163.39
1163.04
1163.13
1162.74
1163.22
1161.89
1163.14
1161.97
1162.92
1162.78
1162.17
1151.28
1151.94
1153.31
1154.17
1154.59
1155.49
1154.91
1155.74
1152.66
1153.94
1152.2
1153.4
1151.28
1152.32
1149.93
1150.73
1156.85
1159.24
1158.44
1161.43
1157.63
1160.49
1159.37
1162.82
1151.84
1151.9
1152.34
1152.02
1153.9
1153.79
1154.61
1154.03
1157.91
1156.43
1160.14
1158.18
1155.92
1156.87
1159.07
1160.95
1162.52
1163.59
1160.26
1162.12
1164.02
1165.1
1158.25
1159.77
1160.92
1161.81
1156.84
1158.1
1151.99
1150.01
1150.96
1148.41
1153.77
1151.45
1152.81
1150.04
1156.25
1153.57
1156.69
1153.31
1156.64
1152.93
1157.35
1153.41
1161.27
1162.8
1163.2
1164.37
1162.78
1164.31
1164.69
1165.99
1161.58
1162.51
1159.9
1161.23
1164.43
1165.35
1165.39
1165.99
1165.93
1167.01
1166.88
1167.67
1162.66
1163.36
1163.56
1163.92
1159.6
1155.77
1160.09
1156.41
1158.55
1155.18
1159.17
1155.74
1160.33
1156.25
1160.76
1156.93
1161.08
1156.83
1161.23
1157.32
1150.48
1149.99
1149.94
1150.03
1152.15
1151.36
1151.22
1151.14
1154.38
1153.49
1152.98
1152.81
1158.86
1160.32
1157.77
1157.34
1154.65
1159.29
1157.62
1156.09
1156.2
1154.26
1161.79
1160.51
1159.5
1158.09
1155.12
1149.97
1149.44
1151.15
1151.3
1150.93
1150.13
1151.86
1151.89
1152.58
1151.43
1152.95
1152.66
1158.42
1156.63
1156.68
1154.49
1155.69
1153.8
1155.69
1154.31
1153.97
1153.05
1161.52
1160.82
1159.89
1158.24
1158.72
1156.82
1157.23
1155.29
1154.28
1152.42
1162.16
1158.88
1163.63
1160.29
1164.38
1163.39
1166.02
1164.95
1161.24
1157.24
1160.11
1156.3
1164.6
1161.17
1165.08
1161.55
1166.95
1165.69
1167.45
1166.03
1162.11
1157.95
1162.54
1158.27
1158.41
1154.35
1154.55
1150.75
1157.73
1153.79
1154.25
1150.7
1158.99
1154.91
1154.84
1150.98
1159.53
1155.2
1155.37
1151.53
1147.98
1145.49
1141.11
1149.66
1147.17
1142.84
1148.6
1146.14
1141.77
1150.26
1147.81
1143.37
1149.88
1147.62
1143.26
1150.9
1148.32
1143.65
1154.79
1152.41
1147.65
1152.22
1149.95
1145.39
1151.71
1149.28
1144.68
1152.54
1150.11
1145.47
1150.73
1147.83
1142.72
1159.06
1155.97
1150.36
1155.06
1151.81
1146.24
1153.45
1150.27
1144.85
1152.01
1148.85
1143.49
1148.47
1145.18
1139.7
1159.68
1162.18
1161.17
1164.22
1158.6
1161.51
1160.29
1163.77
1156.81
1159.22
1157.25
1159.21
1158.67
1160.59
1159.3
1160.77
1162.48
1161.14
1164.43
1162.71
1162.14
1162.95
1165.14
1166.06
1164.92
1165.94
1162.52
1163.6
1164.96
1165.63
1162.56
1163.42
1162.56
1165.3
1161.15
1163.21
1163.47
1166.01
1162.34
1164.2
1164.64
1166.98
1164.72
1166.26
1164.16
1165.04
1164.49
1164.87
1164.93
1166.89
1166.53
1168.28
1164.02
1165.71
1165.82
1167.32
1166.97
1168.92
1165.7
1167.86
1167.56
1169.13
1168.39
1169.71
1166.98
1168.29
1167.89
1168.93
1167.77
1169.6
1168.48
1170.08
1167.5
1168.27
1169.18
1168.97
1166.85
1168.03
1168.42
1168.46
1167.89
1168.3
1169.69
1169.3
1168.37
1168.44
1170.05
1169.52
1162.31
1161.58
1165.88
1165.3
1162.88
1162.01
1166.27
1165.58
1163.77
1162.97
1166.81
1166.17
1163.34
1161.9
1164.44
1166.06
1167.54
1160.92
1162.24
1163.03
1164.97
1166.87
1163.4
1165.01
1166.47
1167.47
1167.84
1160.24
1158.25
1163.78
1161.52
1160.79
1158.93
1164.26
1162.19
1161.88
1160.2
1165.1
1163.31
1160.23
1158.73
1161.81
1160.34
1163
1161.56
1164.7
1163.27
1166.26
1164.62
1163.36
1163.15
1165.04
1164.8
1166.44
1165.98
1167.24
1166.31
1167.24
1165.52
1167.55
1167.56
1168.84
1168.85
1166.23
1166.2
1167.76
1167.72
1169.33
1169.03
1168.34
1167.99
1169.51
1169.44
1169.93
1169.71
1168.56
1168.41
1169.04
1168.73
1169.9
1169.54
1170.24
1169.74
1169.26
1168.33
1168.2
1166.35
1168.52
1167.5
1167.82
1165.89
1169.68
1168.76
1168.42
1166.57
1169.94
1168.92
1168.64
1166.85
1155.33
1152.09
1147.34
1157.46
1153.85
1149.11
1156.23
1153.03
1148.29
1158.42
1154.9
1150.04
1157.94
1155.07
1150.39
1159.88
1156.3
1151.19
1157.13
1154.74
1149.92
1158.76
1156.27
1151.45
1159.84
1157.07
1152.13
1161.33
1158.51
1153.64
1161.21
1157.52
1152.06
1161.93
1159
1153.4
1163.58
1160.65
1155.09
1164.48
1161.37
1155.72
1164.25
1160.97
1155.31
1161.88
1158.21
1152.36
1166.24
1165.69
1163.87
1160.17
1164.03
1163.5
1161.75
1158.31
1166.69
1166.04
1164.14
1160.31
1164.79
1164.15
1162.3
1158.67
1167.26
1166.43
1164.57
1160.79
1166.44
1165.64
1163.73
1159.95
1164.89
1164
1162.15
1158.67
1164.42
1163.41
1161.65
1158.49
1167.78
1166.69
1164.75
1160.92
1167.43
1165.92
1164.17
1160.55
1167.55
1166.46
1164.7
1161.09
1166.99
1165.53
1163.92
1160.47
1167.73
1166.61
1164.56
1160.63
1167.71
1166.16
1164.29
1160.47
1167.7
1166.53
1164.51
1160.74
1167.89
1166.31
1164.37
1160.53
1166.89
1166.29
1164.52
1160.73
1166.02
1165.28
1163.77
1160.16
1166.98
1166.27
1164.5
1160.72
1165.98
1165.13
1163.65
1160.1
1167.02
1166.13
1164.42
1160.74
1166.03
1165.02
1163.54
1160.03
1166.88
1165.72
1164.11
1160.58
1166.02
1164.82
1163.38
1159.94
1166.41
1165
1163.52
1160.19
1163.89
1162.96
1161.63
1158.09
1160.79
1159.7
1157.97
1153.85
1164.03
1163.01
1161.66
1158.12
1160.92
1159.72
1157.95
1153.82
1164.28
1163.08
1161.69
1158.14
1161.14
1159.76
1157.95
1153.84
1164.61
1163.21
1161.77
1158.22
1161.43
1159.83
1157.97
1153.85
1164.97
1163.35
1161.83
1158.28
1161.69
1159.87
1157.95
1153.79
1165.33
1163.43
1161.8
1158.19
1162.32
1160.17
1158.13
1153.88
1165.18
1163.39
1161.82
1158.23
1162.05
1160.04
1158.06
1153.87
1165.4
1163.43
1161.79
1158.17
1162.44
1160.21
1158.15
1153.94
1165.49
1163.46
1161.81
1158.2
1162.52
1160.23
1158.15
1153.96
1155.15
1151.97
1149.34
1146.26
1141.27
1153.75
1150.69
1148.09
1145.01
1140.03
1155.19
1151.99
1149.36
1146.27
1141.29
1153.9
1150.81
1148.2
1145.12
1140.14
1155.33
1152.07
1149.42
1146.33
1141.34
1154.77
1151.64
1149.02
1145.94
1140.95
1153.98
1150.88
1148.26
1145.18
1140.2
1154.06
1150.96
1148.34
1145.26
1140.28
1155.35
1152.07
1149.42
1146.33
1141.34
1153.8
1150.29
1147.61
1144.52
1139.54
1155.08
1151.72
1149.05
1145.97
1140.98
1153.49
1149.95
1147.26
1144.18
1139.2
1155.21
1151.95
1149.3
1146.22
1141.23
1153.51
1150
1147.32
1144.23
1139.26
1155.29
1152.02
1149.37
1146.28
1141.3
1153.35
1149.83
1147.15
1144.06
1139.09
1154.83
1151.47
1148.81
1145.73
1140.74
1152.93
1149.4
1146.72
1143.64
1138.67
1154.75
1151.37
1148.7
1145.62
1140.63
1152.87
1149.33
1146.65
1143.57
1138.6
1154.55
1151.12
1148.45
1145.36
1140.38
1152.72
1149.16
1146.48
1143.4
1138.43
1153.83
1150.3
1147.62
1144.53
1139.55
1152.29
1148.71
1146.03
1142.94
1137.98
1152.67
1149.1
1146.42
1143.34
1138.37
1147.74
1147.44
1147.96
1147.62
1148.28
1147.82
1148.55
1147.93
1148.6
1147.86
1148.65
1147.48
1148.51
1147.47
1148.82
1147.65
1149.02
1147.9
1143.39
1139.62
1136.42
1132.82
1126.94
1143
1139.05
1135.7
1132.01
1126.07
1143.44
1139.64
1136.43
1132.84
1126.96
1143.04
1139.05
1135.71
1131.99
1126.04
1143.54
1139.69
1136.47
1132.86
1126.98
1143.12
1139.09
1135.73
1132.02
1126.06
1143.62
1139.73
1136.49
1132.88
1127
1143.19
1139.14
1135.76
1132.04
1126.08
1143.61
1139.72
1136.46
1132.85
1126.97
1143.21
1139.15
1135.77
1132.04
1126.08
1143.78
1139.88
1136.59
1132.96
1127.1
1143.23
1139.23