/*--------------------------------*- C++ -*----------------------------------*\
  =========                 |
  \\      /  F ield         | OpenFOAM: The Open Source CFD Toolbox
   \\    /   O peration     | Website:  https://openfoam.org
    \\  /    A nd           | Version:  13
     \\/     M anipulation  |
\*---------------------------------------------------------------------------*/
FoamFile
{
    format      ascii;
    class       volScalarField;
    location    "104.831886";
    object      T;
}
// * * * * * * * * * * * * * * * * * * * * * * * * * * * * * * * * * * * * * //

dimensions      [0 0 0 1 0 0 0];

internalField   nonuniform List<scalar> 
5712
(
960.597
960.334
959.895
959.491
958.842
958.433
957.386
957.054
957.682
957.293
958.825
958.432
959.661
959.29
960.291
960.009
958.512
957.981
957.814
957.083
956.743
956.063
956.101
955.241
961.516
963.033
961.235
962.653
960.852
962.302
960.414
961.786
959.343
960.147
958.598
959.616
961.404
960.547
956.949
955.673
956.239
955.291
955.339
954.264
954.498
953.685
958.472
957.142
957.698
956.694
959.69
958.4
964.772
965.814
964.052
965.136
964.034
965.343
963.187
964.39
962.958
964.727
961.652
963.293
960.643
962.266
959.494
961.142
958.107
957.87
956.997
956.881
955.76
955.46
954.88
954.579
959.045
959.348
960.352
960.403
956.061
956.063
955.215
955.384
954.086
953.84
953.342
953.21
957.978
958.476
957.033
957.772
961.06
963.037
961.807
964.031
962.472
964.5
962.912
965.224
959.897
961.818
960.901
963.08
958.871
960.762
960.188
962.332
967.242
969.517
967.619
969.877
966.554
968.672
967.243
969.397
965.395
967.021
966.605
968.377
959.682
956.904
962.21
964.117
966.195
957.301
960.239
963.255
965.291
967.537
956.571
959.185
961.725
964.138
966.513
971.622
972.658
972.773
973.691
970.555
971.746
972.051
973.043
968.699
970.034
970.814
971.996
957.947
959.02
961.161
962.624
964.13
965.65
966.5
968.007
969.655
971.167
957.047
957.913
959.979
961.499
962.738
964.473
965.492
967.37
968.981
970.963
958.614
960.322
957.392
958.905
955.739
956.231
954.647
954.925
960.315
962.331
961.51
963.653
956.356
957.875
955.691
957.14
953.771
954.035
953.144
953.343
959.229
961.284
958.555
960.563
963.654
966.102
967.806
970.78
964.619
967.189
968.451
971.37
962.767
965.137
967.19
970.116
961.931
964.324
966.31
969.079
972.985
973.456
974.334
973.189
973.389
974.192
972.299
972.879
973.81
972.67
972.915
973.78
970.886
971.646
972.686
971.883
972.251
973.222
960.341
961.857
963.483
964.19
965.522
966.966
967.103
968.256
969.535
969.192
970.164
971.389
971.264
971.774
972.911
959.134
960.832
962.671
963.534
965.316
967.145
966.542
968.122
969.767
968.98
970.173
971.632
971.244
971.906
973.217
953.605
953.058
953.126
952.424
955.02
954.344
954.468
953.634
953.336
952.228
953.203
952.173
953.011
952.024
952.778
951.854
952.009
952.466
951.711
952.25
951.815
951.438
951.884
951.257
952.976
952.276
951.699
951.101
951.273
950.705
951.217
950.633
951.111
950.129
951.299
950.379
950.966
949.956
951.014
950.084
950.825
949.727
950.571
949.572
950.379
949.504
949.882
949.166
952.335
951.858
951.716
951.183
953.818
953.402
953.09
952.64
950.76
950.128
951.301
950.719
951.114
950.602
950.516
950.091
952.404
951.987
951.742
951.416
950.231
949.616
949.686
949.163
949.959
949.103
949.438
948.935
950.394
949.471
949.953
949.366
949.53
948.777
948.988
948.565
949.057
948.428
948.594
948.245
951.153
951.634
950.231
950.731
951.136
951.644
950.16
950.68
951.107
951.565
950.047
950.513
952.791
954.55
951.693
950.826
949.906
954.913
953.171
952.146
951.294
950.318
954.212
952.499
951.275
950.455
949.794
952.467
953.617
951.574
952.69
952.399
953.496
951.437
952.508
952.224
953.26
951.174
952.172
955.384
956.273
953.537
954.439
952.487
953.412
951.683
952.624
950.764
951.704
954.501
955.023
952.745
953.27
951.558
952.181
950.798
951.562
950.224
951.17
951.75
951.933
951.059
951.05
953.346
953.477
952.515
952.4
950.127
950.36
950.721
951.113
950.53
950.375
950.026
949.821
951.872
951.617
951.304
950.988
949.653
949.756
949.202
949.262
949.559
950.047
949.31
950.076
950.1
950.727
949.731
950.602
949.119
949.488
948.948
949.617
948.749
949.072
948.624
949.208
955.184
956.746
958.225
954.616
956.379
957.863
954.967
956.548
958.062
954.355
956.13
957.679
954.641
956.193
957.731
953.932
955.791
957.444
957.476
958.982
960.618
955.668
957.227
958.896
954.66
956.286
957.983
953.947
955.568
957.21
953.472
955.426
957.227
955.98
957.61
959.464
954.274
955.934
957.793
953.329
955.087
957
952.91
954.76
956.688
953.02
955.068
957.048
949.732
950.411
952.18
955.434
950.027
950.755
952.584
955.867
949.605
950.311
952.087
955.372
949.796
950.571
952.418
955.712
949.437
950.184
951.887
955.075
949.37
950.205
952.022
955.279
949.427
950.356
952.302
955.638
949.246
950.282
952.307
955.666
949.047
949.938
951.714
954.941
949.104
950.059
951.687
954.591
949.323
950.124
951.731
954.726
949.412
950.274
951.788
954.523
948.825
949.804
951.719
955.065
948.837
949.874
951.597
954.571
948.599
949.665
951.647
954.975
948.604
949.713
951.487
954.448
949.782
950.388
951.998
955.06
950.192
950.707
952.083
954.759
949.746
950.372
951.96
955.004
950.174
950.713
952.081
954.734
949.695
950.36
951.899
954.854
950.088
950.683
952.055
954.676
949.68
950.398
951.862
954.644
950.007
950.663
952.02
954.568
949.721
950.497
951.895
954.445
950.828
951.263
952.504
954.419
951.545
951.929
953.199
955.001
950.749
951.219
952.47
954.383
951.462
951.888
953.175
954.984
950.605
951.144
952.425
954.351
951.317
951.819
953.139
954.953
950.396
951.03
952.34
954.276
951.121
951.719
953.08
954.909
950.127
950.881
952.239
954.195
950.891
951.605
953.017
954.866
949.615
950.594
952.101
954.131
950.305
951.269
952.808
954.725
949.867
950.739
952.174
954.169
950.596
951.438
952.913
954.793
949.391
950.46
952.034
954.101
950.037
951.111
952.712
954.649
949.176
950.321
951.941
954.025
949.793
950.957
952.612
954.569
960.402
964.423
967.866
970.688
972.883
960.657
964.635
968.069
970.887
973.081
960.373
964.409
967.857
970.681
972.877
960.613
964.606
968.046
970.868
973.063
960.318
964.384
967.841
970.668
972.865
960.43
964.447
967.897
970.724
972.921
960.533
964.555
968.01
970.839
973.038
960.475
964.513
967.978
970.813
973.015
960.283
964.365
967.829
970.66
972.859
960.494
964.669
968.146
970.978
973.176
960.33
964.438
967.904
970.732
972.93
960.559
964.737
968.212
971.041
973.238
960.281
964.367
967.836
970.67
972.871
960.52
964.704
968.187
971.021
973.22
960.221
964.325
967.806
970.645
972.849
960.507
964.71
968.201
971.04
973.241
960.432
964.52
967.973
970.794
972.989
960.736
964.886
968.342
971.161
973.353
960.426
964.527
967.984
970.807
973.002
960.729
964.887
968.346
971.166
973.359
960.433
964.56
968.023
970.848
973.044
960.733
964.905
968.369
971.191
973.384
960.524
964.692
968.163
970.99
973.185
960.785
964.969
968.437
971.261
973.455
960.705
964.888
968.36
971.187
973.382
977.646
978.31
977.351
978.028
976.812
977.564
976.129
977.009
975.452
976.469
974.388
975.563
974.932
976.081
973.852
974.985
973.294
974.326
984.922
992.928
999.789
1005.35
1009.34
984.81
992.872
999.813
1005.41
1009.47
984.789
992.858
999.744
1005.32
1009.31
984.69
992.822
999.769
1005.4
1009.45
984.521
992.708
999.644
1005.24
1009.24
984.432
992.678
999.673
1005.33
1009.39
984.16
992.494
999.498
1005.13
1009.15
984.102
992.482
999.54
1005.23
1009.3
983.741
992.223
999.308
1004.98
1009.02
983.746
992.252
999.378
1005.1
1009.19
982.836
991.556
998.801
1004.56
1008.64
982.931
991.656
998.926
1004.72
1008.84
983.289
991.898
999.067
1004.79
1008.85
983.361
991.979
999.178
1004.94
1009.04
982.382
991.205
998.523
1004.33
1008.43
982.446
991.28
998.625
1004.47
1008.6
981.918
990.841
998.232
1004.08
1008.2
981.916
990.878
998.296
1004.19
1008.36
951.988
952.99
953.868
952.72
954.24
954.082
954.029
953.815
954.359
954.066
955.705
955.362
956.422
956.032
955.41
955.084
955.017
954.792
954.944
954.769
952.761
952.502
955.515
956.727
957.123
957.232
956.119
955.569
956.972
955.33
958.189
960.029
955.655
956.172
957.593
956.038
956.668
956.786
954.408
954.307
955.078
954.806
954.451
954.157
954.492
954.941
956.523
956.221
955.642
955.344
953.241
952.858
953.519
953.21
953.665
953.772
954.595
955.648
954.575
950.927
949.995
949.604
949.663
950.185
951.142
950.366
950.031
950.171
950.842
954.593
954.166
954.127
954.5
955.304
955.837
955.446
955.443
955.843
956.66
956.221
955.814
955.793
956.178
956.986
956.344
955.954
955.951
956.351
957.166
955.208
954.791
954.761
955.141
955.948
953.561
952.353
951.723
951.604
951.98
954.832
953.527
952.859
952.736
953.173
953.902
952.992
952.515
952.552
953.171
956.209
954.954
954.337
954.272
954.81
958.091
956.804
956.176
956.107
956.647
954.524
953.87
953.613
953.819
954.533
954.855
954.031
953.627
953.724
954.379
956.316
955.521
955.141
955.256
955.92
954.984
954.406
954.219
954.476
955.217
955.548
954.902
954.653
954.863
955.579
955.751
955.192
955.021
955.29
956.036
952.573
951.545
951.03
950.99
951.442
953.047
952.283
951.929
952.055
952.724
954.005
953.41
953.206
953.452
954.187
953.781
953.238
953.085
953.369
954.125
953.344
952.72
952.49
952.714
953.439
953.112
952.551
952.381
952.652
953.402
953.518
953.033
952.938
953.267
954.049
953.973
953.493
953.401
953.732
954.514
955.564
955.09
955.002
955.334
956.115
955.288
954.846
954.79
955.149
955.944
954.635
954.11
953.973
954.269
955.031
954.368
953.879
953.777
954.101
954.878
951.461
950.504
950.078
950.109
950.6
951.582
950.848
950.538
950.698
951.383
952.045
951.193
950.781
950.841
951.406
952.073
951.432
951.192
951.408
952.128
952.59
952
951.805
952.056
952.796
952.54
951.806
951.475
951.618
952.295
953.613
953.117
953.011
953.331
954.108
954.712
954.267
954.21
954.568
955.363
953.564
953.038
952.901
953.197
953.961
952.623
953.182
952.666
953.285
951.289
951.936
951.265
951.839
952.714
952.785
953.308
953.183
951.304
951.337
951.898
951.718
954.034
955.42
954.536
955.867
954.039
955.294
954.629
955.86
954.649
954.128
954.351
954.009
955.103
955.627
954.036
954.654
953.752
954.435
952.672
953.324
952.279
952.915
955.354
956.02
954.944
955.712
956.362
957.17
956.693
957.802
957.081
958.137
956.601
957.92
957.103
958.271
956.37
958.16
956.71
958.299
957.391
959.018
958.324
959.986
953.218
953.573
953.496
953.902
951.46
951.577
951.757
951.86
955.17
956.193
954.92
955.849
953.945
954.3
954.525
954.797
952.193
952.224
952.726
952.669
955.627
956.61
956.26
957.151
956.915
958.895
958.576
960.822
956.75
958.885
958.282
960.65
957.357
959.252
958.982
961.165
958.031
959.901
959.549
961.693
956.787
957.438
958.022
959.05
956.684
957.218
958.204
959.191
956.493
956.78
958.532
959.347
953.15
951.335
954.934
956.853
959.303
951.277
953.003
954.785
956.806
959.731
951.43
953.381
955.636
958.109
960.672
958.499
958.979
961.761
962.721
958.003
958.485
961.565
962.524
957.267
957.665
961.326
962.292
951.316
951.577
953.158
953.471
955.089
955.407
957.424
957.833
961.632
962.666
951.438
951.708
953.588
954.231
956.041
956.861
958.896
959.881
962.764
964.021
954.093
955.206
954.385
955.524
951.644
951.751
951.892
951.933
957.158
958.797
956.796
958.35
954.634
955.941
955.125
956.521
952.188
952.301
952.623
952.782
957.414
959.254
957.961
959.913
960.487
962.615
964.742
967.444
959.933
961.996
963.975
966.501
960.909
963.114
965.391
968.177
961.303
963.656
965.737
968.473
959.162
959.579
962.097
962.159
958.684
959.146
961.973
961.994
957.977
958.646
961.848
961.906
952.114
953.066
954.056
954.954
955.921
956.7
958.252
958.987
962.077
962.082
952.247
953.272
955.113
956.059
957.64
958.353
960.198
960.523
962.847
962.661
949.088
949.047
949.664
949.416
950.071
950.031
950.677
950.418
948.404
947.915
948.95
948.442
948.42
947.965
949.011
948.521
948.91
948.408
948.832
948.46
948.067
948.543
949.95
950.585
950.946
951.567
949.608
950.329
949.382
950.024
949.22
949.88
947.625
947.444
948.137
947.927
947.629
947.402
948.167
947.892
947.663
947.35
948.065
947.691
948.674
948.233
949.258
948.703
948.873
948.835
949.139
949.02
949.99
949.97
950.275
950.206
948.384
948.224
948.143
948.076
949.53
949.3
949.995
949.653
950.687
950.531
951.182
950.927
948.754
948.464
949.194
948.776
947.85
947.49
947.773
947.591
947.633
947.351
947.655
947.511
948.198
947.754
947.978
947.746
948.609
948.079
948.253
947.968
947.402
947.491
947.257
947.404
947.446
947.543
947.263
947.423
947.544
947.624
947.295
947.439
948.773
949.87
948.06
947.59
947.371
949.881
948.83
948.13
947.665
947.473
949.85
948.76
948.032
947.632
947.518
947.858
948.499
947.842
948.53
947.855
948.453
947.808
948.468
947.862
948.394
947.758
948.364
949.888
950.142
948.838
949.152
948.202
948.593
947.807
948.263
947.718
948.268
949.788
949.893
948.719
948.868
948.055
948.321
947.733
948.14
947.73
948.278
948.683
948.644
948.899
948.745
949.802
949.665
950.062
949.785
948.214
948.284
948.038
948.2
949.245
949.004
949.598
949.372
950.437
950.076
950.829
950.486
948.505
948.516
948.82
948.854
947.888
948.197
947.931
948.468
947.755
948.138
947.804
948.377
948.106
948.383
948.117
948.66
948.399
948.696
948.349
948.9
949.281
950.015
949.533
950.397
949.182
949.969
949.454
950.37
949.091
949.96
949.332
950.393
950.677
951.633
949.742
950.719
949.216
950.201
948.95
949.963
949.242
950.492
950.328
951.429
949.381
950.531
948.964
950.167
948.937
950.192
949.358
950.771
947.881
949.17
951.337
954.865
948.327
949.612
951.804
955.337
947.851
949.133
951.293
954.846
948.278
949.549
951.721
955.243
947.827
949.101
951.154
954.593
948.093
949.343
951.428
954.877
948.57
949.776
951.901
955.365
948.935
950.071
952.16
955.565
947.943
949.189
951.192
954.577
948.162
949.418
951.23
954.252
947.877
949.148
951.058
954.27
948.12
949.4
951.18
954.096
948.122
949.326
951.381
954.822
948.259
949.479
951.31
954.347
948.355
949.499
951.529
954.891
948.408
949.579
951.389
954.37
947.737
949.024
951.072
954.432
947.941
949.223
951.076
954.061
947.763
949.048
951.066
954.405
947.984
949.267
951.103
954.061
947.831
949.113
951.057
954.298
948.038
949.324
951.138
954.052
947.965
949.248
951.081
954.126
948.115
949.404
951.171
953.998
948.153
949.444
951.174
953.949
948.421
949.699
951.446
953.619
949.051
950.329
952.108
954.143
948.418
949.7
951.442
953.606
949.05
950.334
952.113
954.148
948.426
949.714
951.459
953.627
949.06
950.354
952.136
954.161
948.438
949.735
951.463
953.623
949.072
950.378
952.157
954.178
948.467
949.773
951.475
953.618
949.101
950.424
952.196
954.212
948.657
949.946
951.638
953.758
949.23
950.548
952.298
954.313
948.544
949.849
951.551
953.685
949.14
950.469
952.233
954.247
948.807
950.064
951.747
953.862
949.382
950.669
952.399
954.395
948.981
950.189
951.845
953.944
949.577
950.811
952.508
954.485
960.064
964.216
967.736
970.6
972.814
960.334
964.435
967.943
970.803
973.015
960.065
964.219
967.739
970.601
972.814
960.33
964.431
967.936
970.794
973.005
960.045
964.218
967.737
970.598
972.81
960.195
964.302
967.807
970.663
972.874
960.369
964.454
967.947
970.797
973.005
960.413
964.474
967.954
970.797
973.002
960.072
964.236
967.749
970.605
972.816
960.307
964.555
968.075
970.93
973.139
960.08
964.287
967.809
970.669
972.88
960.335
964.602
968.128
970.985
973.194
960.136
964.277
967.78
970.632
972.841
960.393
964.626
968.138
970.988
973.195
960.17
964.294
967.786
970.632
972.838
960.463
964.682
968.184
971.028
973.232
960.078
964.305
967.838
970.704
972.918
960.37
964.666
968.206
971.07
973.281
960.093
964.326
967.858
970.722
972.936
960.38
964.677
968.216
971.079
973.29
960.133
964.379
967.91
970.772
972.985
960.414
964.714
968.25
971.111
973.322
960.257
964.532
968.063
970.922
973.133
960.504
964.801
968.332
971.191
973.4
960.458
964.74
968.268
971.125
973.333
968.699
969.46
968.803
969.581
969.041
969.841
969.423
970.207
970.039
970.717
971.607
972.492
970.905
971.675
972.21
973.184
972.754
973.741
978.386
988.264
996.264
1002.47
1006.78
978.171
988.152
996.257
1002.51
1006.9
978.482
988.332
996.313
1002.5
1006.81
978.297
988.25
996.311
1002.58
1006.94
978.678
988.467
996.41
1002.58
1006.88
978.487
988.379
996.403
1002.65
1007.01
978.982
988.676
996.562
1002.7
1006.98
978.768
988.569
996.539
1002.76
1007.1
979.417
988.968
996.777
1002.88
1007.14
979.131
988.81
996.716
1002.9
1007.23
980.458
989.693
997.322
1003.32
1007.53
980.273
989.584
997.288
1003.35
1007.62
979.93
989.311
997.032
1003.09
1007.32
979.655
989.149
996.965
1003.1
1007.4
980.959
990.077
997.622
1003.57
1007.75
980.86
990.026
997.625
1003.63
1007.85
981.447
990.466
997.931
1003.83
1007.98
981.399
990.466
997.965
1003.91
1008.11
951.173
952.12
951.43
950.442
949.114
949.672
949.102
949.737
950.085
950.744
950.084
950.652
961.224
961.046
960.606
959.91
958.971
957.842
961.299
961.13
960.711
960.058
959.201
958.195
961.675
962.353
961.474
962.124
960.981
961.565
960.19
960.654
959.132
959.488
957.904
958.286
956.632
955.487
954.505
953.699
953.098
952.663
957.123
956.084
955.152
954.37
953.767
953.346
960.393
960.065
960.122
960.567
961.4
960.213
959.883
959.939
960.382
961.215
959.77
959.436
959.487
959.928
960.761
959.067
958.726
958.772
959.208
960.039
958.118
957.767
957.802
958.232
959.06
956.974
956.606
956.625
957.043
957.867
960.468
960.139
960.195
960.639
961.471
960.296
959.965
960.019
960.462
961.294
959.874
959.538
959.589
960.028
960.859
959.214
958.872
958.915
959.35
960.179
958.347
957.993
958.026
958.453
959.281
957.326
956.956
956.974
957.389
958.212
960.846
960.519
960.577
961.022
961.855
961.526
961.2
961.258
961.702
962.533
960.643
960.314
960.371
960.814
961.646
961.295
960.967
961.023
961.466
962.296
960.146
959.813
959.866
960.307
961.138
960.731
960.399
960.452
960.892
961.722
959.348
959.008
959.055
959.491
960.322
959.812
959.472
959.517
959.953
960.782
958.28
957.929
957.964
958.393
959.221
958.634
958.282
958.315
958.741
959.568
957.035
956.667
956.686
957.103
957.927
957.416
957.045
957.061
957.475
958.296
955.741
955.349
955.344
955.743
956.56
954.564
954.137
954.097
954.47
955.274
953.538
953.062
952.975
953.311
954.097
952.669
952.128
951.982
952.272
953.034
951.995
951.389
951.188
951.436
952.175
951.51
950.868
950.639
950.866
951.593
956.233
955.842
955.837
956.236
957.051
955.167
954.745
954.711
955.087
955.892
954.2
953.74
953.669
954.018
954.809
953.378
952.876
952.764
953.082
953.857
952.736
952.195
952.049
952.34
953.102
952.292
951.731
951.568
951.847
952.603
961.137
960.786
960.173
959.302
958.185
956.873
961.213
960.872
960.282
959.46
958.437
957.278
961.586
962.259
961.205
961.84
960.53
961.09
959.554
959.981
958.308
958.62
956.87
957.174
955.493
954.235
953.235
952.573
952.309
952.378
956.083
954.981
954.081
953.457
953.146
953.126
960.307
959.979
960.037
960.482
961.316
959.954
959.625
959.682
960.127
960.962
959.337
959.006
959.061
959.504
960.339
958.46
958.124
958.174
958.616
959.451
957.336
956.991
957.035
957.471
958.306
956.012
955.654
955.686
956.115
956.948
960.382
960.053
960.11
960.554
961.388
960.039
959.709
959.765
960.209
961.043
959.446
959.113
959.166
959.609
960.443
958.617
958.279
958.328
958.767
959.601
957.587
957.24
957.281
957.715
958.548
956.415
956.055
956.084
956.51
957.341
960.757
960.43
960.489
960.934
961.767
961.432
961.106
961.165
961.609
962.441
960.374
960.046
960.104
960.549
961.382
961.012
960.685
960.743
961.187
962.019
959.696
959.365
959.42
959.864
960.698
960.258
959.927
959.983
960.426
961.259
958.714
958.378
958.429
958.871
959.705
959.142
958.806
958.857
959.298
960.131
957.46
957.116
957.16
957.597
958.431
957.771
957.427
957.47
957.906
958.739
956.009
955.653
955.686
956.116
956.948
956.313
955.957
955.989
956.417
957.249
954.613
954.237
954.251
954.667
955.495
953.329
952.924
952.911
953.306
954.125
952.29
951.844
951.79
952.155
952.959
951.569
951.062
950.952
951.273
952.054
951.228
950.652
950.48
950.754
951.508
951.234
950.604
950.386
950.623
951.356
955.202
954.825
954.836
955.249
956.075
954.077
953.674
953.66
954.055
954.872
953.145
952.707
952.66
953.029
953.834
952.482
952.001
951.914
952.252
953.041
952.128
951.604
951.477
951.784
952.556
952.077
951.522
951.366
951.651
952.411
952.263
952.115
954.076
955.49
955.582
955.909
954.613
951.442
951.85
951.624
952.796
952.654
952.455
953.358
953.538
954.076
951.35
951.463
952.482
952.58
951.969
952.14
952.91
953.102
954.381
954.383
953.316
953.308
951.783
951.791
951.336
951.72
951.868
951.441
952.811
953.945
952.557
950.461
949.573
949.215
949.301
949.85
950.772
950.019
949.705
949.863
950.545
953.175
952.777
952.77
953.171
953.992
954.614
954.242
954.259
954.678
955.508
954.7
954.321
954.332
954.745
955.571
955.036
954.667
954.687
955.108
955.937
953.723
953.336
953.339
953.747
954.573
949.856
949.055
948.739
948.866
949.416
950.311
949.544
949.264
949.426
950.026
950.452
949.808
949.58
949.809
950.538
951.417
950.732
950.511
950.728
951.42
951.658
951.161
951.06
951.389
952.174
951.378
950.81
950.648
950.93
951.689
952.403
951.944
951.878
952.234
953.032
952.564
952.085
952
952.34
953.13
953.135
952.69
952.637
953.001
953.802
949.79
949.006
948.703
948.839
949.41
950.35
949.75
949.557
949.814
950.559
951.504
951.023
950.937
951.277
952.069
951.621
951.16
951.093
951.449
952.248
950.957
950.444
950.329
950.647
951.427
951.155
950.669
950.577
950.913
951.703
951.968
951.526
951.477
951.845
952.652
952.174
951.746
951.71
952.089
952.9
953.469
953.056
953.034
953.422
954.236
953.482
953.084
953.075
953.475
954.295
952.378
951.938
951.89
952.259
953.065
952.381
951.955
951.92
952.3
953.111
950.096
949.265
948.934
949.045
949.61
950.561
949.881
949.626
949.831
950.546
949.993
949.284
949.005
949.177
949.817
950.635
950.056
949.881
950.152
950.905
950.848
950.327
950.204
950.516
951.292
950.317
949.707
949.502
949.748
950.487
951.869
951.426
951.376
951.744
952.551
953.04
952.636
952.623
953.02
953.84
951.601
951.143
951.078
951.435
952.236
953.025
952.249
951.932
952.048
952.56
953.568
952.441
952.504
951.081
951.053
952.569
952.687
951.123
951.188
953.911
955.451
953.923
955.308
954.064
953.989
955.054
952.401
952.472
951.026
950.99
952.545
952.664
951.081
951.171
953.993
955.621
954
955.438
954.135
954.022
955.167
952.423
952.501
951.016
950.969
952.581
952.706
951.086
951.181
954.07
956.043
954.08
955.803
954.216
954.096
955.476
952.708
952.785
951.269
951.219
952.873
953.023
951.343
951.455
954.463
956.549
954.456
956.293
954.574
954.435
955.9
953.213
953.287
951.779
951.728
953.374
953.551
951.852
951.962
954.978
956.931
954.963
956.727
955.059
954.957
956.345
954.118
954.186
952.71
952.661
954.255
954.403
952.78
952.878
955.786
957.586
955.755
957.394
955.834
955.723
957.009
948.899
948.89
949.867
949.863
948.912
948.931
949.889
949.923
948.201
947.675
948.234
947.755
948.244
948.334
947.915
948.831
948.835
949.807
949.792
948.876
948.917
949.845
949.888
948.103
947.674
948.156
947.773
948.206
948.327
947.943
948.802
948.823
949.787
949.759
948.888
948.95
949.845
949.913
948.153
947.876
948.221
947.965
948.305
948.432
948.123
949.054
949.086
950.035
950
949.166
949.255
950.104
950.175
948.47
948.338
948.549
948.421
948.666
948.818
948.57
949.588
949.625
950.555
950.518
949.725
949.847
950.625
950.705
949.064
949.013
949.15
949.08
949.282
949.451
949.204
950.562
950.6
951.508
951.47
950.701
950.806
951.579
951.654
950.047
949.896
950.129
949.969
950.239
950.383
950.096
960.645
960.396
959.905
959.5
958.849
958.44
957.391
957.059
957.688
957.298
958.833
958.44
959.672
959.3
960.349
960.081
958.518
957.985
957.819
957.086
956.747
956.066
956.105
955.244
961.552
963.059
961.284
962.692
960.86
962.309
960.421
961.79
959.347
960.152
958.602
959.62
961.409
960.551
956.953
955.675
956.242
955.293
955.341
954.266
954.5
953.687
958.475
957.144
957.701
956.696
959.693
958.402
964.796
965.837
964.088
965.171
964.038
965.346
963.19
964.393
962.962
964.73
961.655
963.296
960.646
962.268
959.496
961.144
958.11
957.872
957
956.883
955.763
955.462
954.882
954.581
959.047
959.35
960.355
960.405
956.062
956.064
955.216
955.386
954.088
953.841
953.343
953.211
957.979
958.477
957.035
957.773
961.062
963.039
961.808
964.032
962.474
964.502
962.914
965.226
959.899
961.82
960.902
963.081
958.872
960.763
960.189
962.333
967.271
969.549
967.639
969.897
966.556
968.674
967.247
969.4
965.397
967.022
966.607
968.379
959.684
956.905
962.212
964.119
966.197
957.302
960.24
963.256
965.293
967.539
956.573
959.187
961.727
964.139
966.515
971.655
972.691
972.792
973.709
970.555
971.745
972.052
973.044
968.7
970.034
970.815
971.997
957.949
959.021
961.163
962.626
964.131
965.651
966.502
968.008
969.657
971.168
957.048
957.914
959.98
961.5
962.739
964.474
965.494
967.371
968.982
970.964
958.615
960.323
957.393
958.907
955.74
956.232
954.648
954.926
960.316
962.333
961.512
963.655
956.358
957.876
955.692
957.141
953.772
954.036
953.145
953.343
959.23
961.285
958.556
960.564
963.656
966.103
967.807
970.781
964.621
967.19
968.452
971.371
962.768
965.138
967.191
970.117
961.932
964.325
966.311
969.08
973.014
973.481
974.358
973.207
973.406
974.207
972.299
972.879
973.81
972.67
972.917
973.782
970.886
971.647
972.686
971.884
972.253
973.223
960.342
961.858
963.484
964.191
965.523
966.967
967.104
968.257
969.535
969.193
970.165
971.39
971.265
971.776
972.912
959.135
960.833
962.672
963.535
965.317
967.146
966.543
968.123
969.768
968.981
970.174
971.633
971.245
971.907
973.218
953.607
953.06
953.128
952.426
955.022
954.346
954.471
953.636
953.354
952.247
953.229
952.199
953.012
952.025
952.777
951.854
952.009
952.467
951.712
952.251
951.815
951.439
951.885
951.258
952.977
952.277
951.7
951.102
951.273
950.706
951.218
950.634
951.126
950.139
951.322
950.398
950.966
949.956
951.014
950.084
950.826
949.727
950.571
949.572
950.379
949.504
949.883
949.167
952.336
951.859
951.717
951.184
953.819
953.404
953.091
952.641
950.761
950.129
951.302
950.72
951.115
950.603
950.516
950.092
952.405
951.988
951.743
951.417
950.232
949.616
949.687
949.164
949.96
949.103
949.439
948.936
950.394
949.472
949.954
949.367
949.531
948.777
948.989
948.565
949.057
948.428
948.595
948.245
951.162
951.639
950.236
950.734
951.136
951.645
950.161
950.681
951.108
951.566
950.048
950.514
952.792
954.552
951.693
950.827
949.907
954.915
953.172
952.147
951.295
950.318
954.214
952.5
951.276
950.456
949.795
952.471
953.623
951.575
952.692
952.399
953.496
951.438
952.509
952.225
953.261
951.174
952.172
955.385
956.274
953.538
954.44
952.488
953.413
951.684
952.625
950.765
951.705
954.503
955.024
952.746
953.271
951.559
952.182
950.799
951.563
950.225
951.171
951.751
951.934
951.06
951.051
953.347
953.478
952.516
952.401
950.128
950.361
950.721
951.114
950.531
950.376
950.026
949.822
951.873
951.618
951.305
950.989
949.653
949.757
949.203
949.263
949.56
950.048
949.31
950.076
950.101
950.728
949.732
950.602
949.119
949.489
948.948
949.618
948.75
949.073
948.625
949.209
955.191
956.754
958.234
954.618
956.383
957.868
954.967
956.548
958.062
954.356
956.131
957.68
954.642
956.193
957.731
953.933
955.791
957.444
957.477
958.982
960.619
955.669
957.227
958.896
954.661
956.287
957.984
953.947
955.569
957.211
953.473
955.427
957.228
955.981
957.611
959.465
954.274
955.935
957.794
953.33
955.088
957
952.911
954.761
956.689
953.02
955.069
957.048
949.739
950.417
952.187
955.442
950.041
950.767
952.596
955.88
949.606
950.312
952.087
955.372
949.796
950.571
952.418
955.711
949.438
950.184
951.887
955.075
949.37
950.205
952.022
955.278
949.428
950.356
952.302
955.638
949.246
950.282
952.306
955.665
949.047
949.938
951.714
954.941
949.104
950.059
951.688
954.591
949.323
950.124
951.731
954.726
949.413
950.274
951.788
954.523
948.825
949.804
951.719
955.065
948.837
949.874
951.597
954.571
948.599
949.665
951.646
954.975
948.604
949.713
951.487
954.448
949.784
950.389
952
955.065
950.192
950.706
952.082
954.762
949.746
950.372
951.961
955.004
950.175
950.714
952.082
954.734
949.695
950.36
951.899
954.854
950.088
950.683
952.055
954.676
949.681
950.399
951.862
954.644
950.007
950.663
952.02
954.568
949.721
950.497
951.895
954.445
950.826
951.259
952.501
954.419
951.542
951.925
953.195
954.998
950.749
951.22
952.471
954.383
951.462
951.889
953.176
954.985
950.605
951.145
952.426
954.351
951.318
951.82
953.14
954.953
950.397
951.031
952.341
954.276
951.121
951.72
953.08
954.909
950.128
950.882
952.239
954.195
950.892
951.605
953.017
954.866
949.616
950.594
952.101
954.131
950.305
951.27
952.808
954.725
949.867
950.739
952.174
954.169
950.597
951.438
952.913
954.793
949.391
950.46
952.034
954.101
950.037
951.111
952.712
954.649
949.176
950.321
951.942
954.025
949.793
950.957
952.612
954.569
960.405
964.424
967.867
970.688
972.883
960.665
964.641
968.074
970.892
973.086
960.373
964.409
967.857
970.68
972.876
960.611
964.604
968.045
970.866
973.061
960.318
964.384
967.841
970.667
972.865
960.429
964.446
967.896
970.723
972.92
960.532
964.554
968.009
970.839
973.037
960.475
964.512
967.977
970.813
973.014
960.283
964.365
967.829
970.659
972.858
960.494
964.668
968.146
970.977
973.175
960.329
964.438
967.903
970.732
972.929
960.559
964.737
968.212
971.041
973.238
960.281
964.366
967.836
970.669
972.87
960.52
964.704
968.186
971.02
973.22
960.221
964.325
967.805
970.645
972.848
960.507
964.709
968.2
971.039
973.241
960.431
964.518
967.97
970.791
972.985
960.733
964.881
968.338
971.156
973.348
960.427
964.528
967.984
970.807
973.002
960.73
964.887
968.346
971.167
973.359
960.433
964.56
968.023
970.848
973.044
960.733
964.905
968.369
971.191
973.384
960.524
964.692
968.162
970.989
973.185
960.785
964.969
968.437
971.261
973.454
960.705
964.888
968.36
971.186
973.382
977.662
978.322
977.351
978.03
976.813
977.565
976.131
977.01
975.453
976.47
974.389
975.564
974.933
976.082
973.853
974.986
973.295
974.327
984.931
992.933
999.793
1005.35
1009.34
984.814
992.874
999.813
1005.41
1009.47
984.79
992.859
999.744
1005.32
1009.31
984.692
992.823
999.77
1005.4
1009.45
984.522
992.709
999.645
1005.24
1009.24
984.433
992.679
999.674
1005.33
1009.39
984.161
992.495
999.499
1005.13
1009.15
984.103
992.483
999.541
1005.23
1009.3
983.742
992.224
999.308
1004.98
1009.02
983.747
992.253
999.379
1005.1
1009.19
982.837
991.557
998.802
1004.56
1008.64
982.932
991.657
998.927
1004.72