/*--------------------------------*- C++ -*----------------------------------*\
  =========                 |
  \\      /  F ield         | OpenFOAM: The Open Source CFD Toolbox
   \\    /   O peration     | Website:  https://openfoam.org
    \\  /    A nd           | Version:  13
     \\/     M anipulation  |
\*---------------------------------------------------------------------------*/
FoamFile
{
    format      ascii;
    class       volScalarField;
    location    "214.831886";
    object      T;
}
// * * * * * * * * * * * * * * * * * * * * * * * * * * * * * * * * * * * * * //

dimensions      [0 0 0 1 0 0 0];

internalField   nonuniform List<scalar> 
5712
(
1121.64
1121.56
1121.42
1121.29
1121.07
1120.94
1120.58
1120.48
1120.67
1120.55
1121.05
1120.93
1121.33
1121.21
1121.53
1121.44
1120.97
1120.81
1120.75
1120.52
1120.38
1120.17
1120.18
1119.91
1121.95
1122.46
1121.86
1122.33
1121.74
1122.22
1121.6
1122.06
1121.26
1121.52
1121.03
1121.35
1121.94
1121.66
1120.47
1120.07
1120.25
1119.95
1119.94
1119.6
1119.67
1119.42
1120.98
1120.55
1120.74
1120.41
1121.38
1120.97
1123.04
1123.37
1122.79
1123.14
1122.8
1123.23
1122.52
1122.91
1122.46
1123.04
1122.03
1122.56
1121.7
1122.23
1121.33
1121.86
1120.86
1120.79
1120.51
1120.47
1120.08
1119.98
1119.8
1119.7
1121.19
1121.3
1121.61
1121.63
1120.21
1120.21
1119.94
1119.99
1119.55
1119.47
1119.31
1119.27
1120.84
1121.02
1120.54
1120.79
1121.85
1122.49
1122.11
1122.84
1122.31
1122.97
1122.47
1123.23
1121.47
1122.1
1121.82
1122.53
1121.14
1121.76
1121.59
1122.29
1123.85
1124.6
1123.97
1124.72
1123.63
1124.32
1123.85
1124.56
1123.26
1123.79
1123.65
1124.24
1121.37
1120.44
1122.21
1122.85
1123.53
1120.56
1121.54
1122.54
1123.23
1123.97
1120.33
1121.21
1122.06
1122.86
1123.64
1125.29
1125.62
1125.68
1125.98
1124.94
1125.32
1125.45
1125.76
1124.33
1124.76
1125.04
1125.42
1120.76
1121.1
1121.84
1122.3
1122.83
1123.31
1123.62
1124.1
1124.67
1125.16
1120.48
1120.75
1121.46
1121.95
1122.39
1122.94
1123.3
1123.91
1124.46
1125.1
1121.03
1121.58
1120.64
1121.12
1120.07
1120.21
1119.72
1119.79
1121.61
1122.26
1122
1122.69
1120.3
1120.79
1120.09
1120.55
1119.44
1119.5
1119.24
1119.28
1121.26
1121.93
1121.04
1121.69
1122.72
1123.52
1124.09
1125.07
1123.03
1123.87
1124.3
1125.25
1122.43
1123.21
1123.9
1124.86
1122.16
1122.95
1123.61
1124.52
1125.7
1125.82
1126.08
1125.78
1125.81
1126.04
1125.47
1125.63
1125.91
1125.61
1125.65
1125.91
1125.01
1125.23
1125.54
1125.35
1125.44
1125.72
1121.51
1121.98
1122.49
1122.79
1123.2
1123.64
1123.76
1124.11
1124.5
1124.46
1124.75
1125.12
1125.15
1125.28
1125.61
1121.13
1121.66
1122.23
1122.59
1123.14
1123.71
1123.59
1124.07
1124.58
1124.4
1124.75
1125.19
1125.14
1125.31
1125.7
1119.33
1119.16
1119.18
1118.96
1119.8
1119.59
1119.63
1119.37
1119.21
1118.84
1119.17
1118.82
1119.11
1118.78
1119.04
1118.73
1118.8
1118.94
1118.72
1118.88
1118.72
1118.61
1118.79
1118.59
1119.16
1118.94
1118.71
1118.52
1118.58
1118.4
1118.54
1118.36
1118.47
1118.14
1118.53
1118.22
1118.43
1118.09
1118.45
1118.13
1118.39
1118.02
1118.32
1117.97
1118.26
1117.95
1118.11
1117.85
1118.92
1118.77
1118.73
1118.56
1119.42
1119.29
1119.2
1119.05
1118.41
1118.2
1118.57
1118.39
1118.54
1118.38
1118.36
1118.22
1118.98
1118.85
1118.77
1118.66
1118.24
1118.04
1118.07
1117.9
1118.13
1117.83
1117.96
1117.78
1118.26
1117.94
1118.12
1117.91
1118
1117.73
1117.82
1117.66
1117.85
1117.62
1117.7
1117.56
1118.47
1118.62
1118.17
1118.33
1118.47
1118.63
1118.15
1118.31
1118.47
1118.61
1118.12
1118.27
1119.06
1119.65
1118.69
1118.39
1118.08
1119.76
1119.18
1118.83
1118.54
1118.21
1119.54
1118.97
1118.56
1118.28
1118.05
1118.88
1119.24
1118.59
1118.95
1118.86
1119.21
1118.55
1118.89
1118.82
1119.14
1118.47
1118.79
1119.91
1120.18
1119.29
1119.57
1118.93
1119.22
1118.66
1118.95
1118.35
1118.65
1119.63
1119.79
1119.04
1119.2
1118.64
1118.84
1118.38
1118.62
1118.18
1118.48
1118.73
1118.78
1118.51
1118.5
1119.27
1119.29
1119
1118.95
1118.2
1118.26
1118.38
1118.5
1118.35
1118.28
1118.19
1118.1
1118.8
1118.7
1118.62
1118.49
1118.05
1118.07
1117.9
1117.91
1118
1118.14
1117.89
1118.13
1118.17
1118.36
1118.03
1118.3
1117.86
1117.96
1117.78
1117.99
1117.74
1117.83
1117.68
1117.86
1119.74
1120.23
1120.69
1119.56
1120.11
1120.58
1119.67
1120.17
1120.64
1119.48
1120.04
1120.52
1119.58
1120.07
1120.55
1119.35
1119.94
1120.45
1120.55
1121.03
1121.54
1119.95
1120.44
1120.96
1119.61
1120.12
1120.65
1119.37
1119.88
1120.39
1119.21
1119.83
1120.39
1120.08
1120.59
1121.17
1119.51
1120.03
1120.61
1119.19
1119.75
1120.34
1119.05
1119.63
1120.23
1119.07
1119.72
1120.34
1117.99
1118.19
1118.73
1119.75
1118.08
1118.29
1118.86
1119.89
1117.95
1118.16
1118.7
1119.73
1118.01
1118.24
1118.81
1119.84
1117.9
1118.12
1118.64
1119.64
1117.88
1118.12
1118.68
1119.7
1117.9
1118.17
1118.77
1119.81
1117.84
1118.14
1118.77
1119.82
1117.78
1118.04
1118.58
1119.6
1117.8
1118.08
1118.57
1119.48
1117.87
1118.1
1118.59
1119.53
1117.89
1118.14
1118.61
1119.46
1117.71
1118
1118.59
1119.64
1117.71
1118.02
1118.55
1119.48
1117.64
1117.95
1118.56
1119.61
1117.64
1117.97
1118.51
1119.44
1118.01
1118.18
1118.67
1119.63
1118.14
1118.28
1118.7
1119.54
1118
1118.17
1118.66
1119.62
1118.13
1118.28
1118.7
1119.53
1117.98
1118.17
1118.64
1119.57
1118.1
1118.27
1118.69
1119.51
1117.98
1118.18
1118.63
1119.5
1118.08
1118.26
1118.68
1119.48
1117.99
1118.21
1118.64
1119.44
1118.33
1118.45
1118.83
1119.42
1118.56
1118.66
1119.04
1119.6
1118.31
1118.44
1118.82
1119.41
1118.53
1118.65
1119.04
1119.6
1118.27
1118.41
1118.8
1119.4
1118.49
1118.62
1119.02
1119.59
1118.2
1118.38
1118.78
1119.38
1118.43
1118.59
1119.01
1119.57
1118.12
1118.33
1118.74
1119.35
1118.36
1118.56
1118.99
1119.56
1117.96
1118.24
1118.7
1119.33
1118.17
1118.45
1118.92
1119.51
1118.04
1118.29
1118.72
1119.34
1118.26
1118.5
1118.95
1119.54
1117.89
1118.2
1118.68
1119.32
1118.09
1118.4
1118.89
1119.49
1117.82
1118.16
1118.65
1119.3
1118.01
1118.35
1118.86
1119.47
1121.32
1122.59
1123.67
1124.56
1125.25
1121.4
1122.65
1123.74
1124.62
1125.31
1121.31
1122.58
1123.67
1124.56
1125.25
1121.38
1122.64
1123.73
1124.62
1125.3
1121.29
1122.58
1123.66
1124.55
1125.24
1121.33
1122.59
1123.68
1124.57
1125.26
1121.36
1122.63
1123.72
1124.61
1125.3
1121.34
1122.61
1123.71
1124.6
1125.29
1121.28
1122.57
1123.66
1124.55
1125.24
1121.35
1122.66
1123.76
1124.65
1125.34
1121.3
1122.59
1123.68
1124.57
1125.26
1121.37
1122.68
1123.78
1124.67
1125.36
1121.28
1122.57
1123.66
1124.55
1125.24
1121.35
1122.67
1123.77
1124.66
1125.35
1121.26
1122.56
1123.65
1124.55
1125.24
1121.35
1122.68
1123.78
1124.67
1125.36
1121.33
1122.62
1123.71
1124.59
1125.28
1121.42
1122.73
1123.82
1124.71
1125.39
1121.33
1122.62
1123.71
1124.6
1125.28
1121.42
1122.73
1123.82
1124.71
1125.4
1121.33
1122.63
1123.72
1124.61
1125.3
1121.42
1122.74
1123.83
1124.72
1125.4
1121.36
1122.67
1123.76
1124.65
1125.34
1121.44
1122.76
1123.85
1124.74
1125.43
1121.41
1122.73
1123.83
1124.72
1125.4
1127.31
1127.52
1127.21
1127.43
1127.04
1127.28
1126.82
1127.11
1126.6
1126.94
1126.27
1126.66
1126.44
1126.82
1126.1
1126.47
1125.92
1126.26
1129.74
1132.41
1134.67
1136.43
1137.64
1129.7
1132.39
1134.67
1136.45
1137.68
1129.69
1132.39
1134.65
1136.42
1137.63
1129.66
1132.37
1134.66
1136.45
1137.67
1129.61
1132.34
1134.62
1136.4
1137.61
1129.57
1132.33
1134.63
1136.42
1137.65
1129.49
1132.27
1134.58
1136.36
1137.58
1129.47
1132.26
1134.59
1136.39
1137.63
1129.36
1132.18
1134.51
1136.32
1137.54
1129.36
1132.19
1134.53
1136.35
1137.59
1129.07
1131.97
1134.35
1136.19
1137.43
1129.1
1132
1134.39
1136.23
1137.48
1129.22
1132.08
1134.44
1136.26
1137.49
1129.24
1132.1
1134.47
1136.3
1137.54
1128.93
1131.85
1134.26
1136.11
1137.36
1128.94
1131.88
1134.29
1136.15
1137.41
1128.78
1131.74
1134.17
1136.03
1137.29
1128.77
1131.75
1134.19
1136.06
1137.33
1118.83
1119.17
1119.44
1119.05
1119.51
1119.46
1119.45
1119.38
1119.57
1119.48
1120.02
1119.91
1120.25
1120.12
1119.91
1119.8
1119.77
1119.7
1119.74
1119.68
1119.06
1118.95
1119.83
1120.2
1120.33
1120.36
1120.02
1119.96
1120.41
1119.86
1120.78
1121.36
1119.92
1120.11
1120.55
1120.03
1120.24
1120.26
1119.59
1119.52
1119.73
1119.64
1119.54
1119.44
1119.53
1119.67
1120.16
1120.06
1119.9
1119.8
1119.21
1119.06
1119.28
1119.15
1119.29
1119.34
1119.56
1119.88
1119.56
1118.46
1118.14
1118.01
1118.01
1118.17
1118.51
1118.25
1118.13
1118.17
1118.37
1119.54
1119.41
1119.39
1119.51
1119.75
1119.92
1119.8
1119.8
1119.92
1120.17
1120.05
1119.92
1119.91
1120.03
1120.28
1120.08
1119.96
1119.96
1120.08
1120.33
1119.74
1119.6
1119.59
1119.71
1119.96
1119.31
1118.9
1118.69
1118.63
1118.74
1119.71
1119.27
1119.04
1118.99
1119.12
1119.39
1119.09
1118.93
1118.93
1119.12
1120.13
1119.72
1119.51
1119.48
1119.64
1120.72
1120.3
1120.08
1120.05
1120.21
1119.56
1119.35
1119.26
1119.32
1119.54
1119.69
1119.42
1119.28
1119.3
1119.5
1120.14
1119.88
1119.75
1119.78
1119.98
1119.7
1119.51
1119.45
1119.52
1119.75
1119.88
1119.67
1119.59
1119.65
1119.86
1119.93
1119.75
1119.69
1119.77
1120
1118.99
1118.64
1118.46
1118.44
1118.57
1119.11
1118.86
1118.74
1118.77
1118.97
1119.39
1119.2
1119.13
1119.2
1119.42
1119.32
1119.14
1119.09
1119.17
1119.4
1119.19
1118.99
1118.91
1118.97
1119.19
1119.11
1118.93
1118.87
1118.94
1119.17
1119.22
1119.06
1119.03
1119.13
1119.37
1119.36
1119.21
1119.18
1119.28
1119.52
1119.86
1119.71
1119.68
1119.78
1120.02
1119.77
1119.63
1119.61
1119.71
1119.96
1119.58
1119.41
1119.36
1119.45
1119.68
1119.49
1119.33
1119.3
1119.39
1119.63
1118.63
1118.31
1118.16
1118.15
1118.3
1118.64
1118.4
1118.29
1118.33
1118.54
1118.81
1118.52
1118.38
1118.39
1118.56
1118.79
1118.58
1118.5
1118.56
1118.78
1118.95
1118.76
1118.69
1118.76
1118.98
1118.95
1118.71
1118.59
1118.63
1118.83
1119.25
1119.09
1119.06
1119.15
1119.39
1119.59
1119.45
1119.42
1119.53
1119.78
1119.24
1119.07
1119.03
1119.11
1119.35
1119.1
1119.28
1119.12
1119.31
1118.66
1118.86
1118.65
1118.83
1119.13
1119.16
1119.32
1119.28
1118.66
1118.67
1118.85
1118.79
1119.57
1120.03
1119.73
1120.16
1119.57
1119.99
1119.76
1120.16
1119.76
1119.6
1119.67
1119.56
1119.92
1120.09
1119.55
1119.74
1119.46
1119.68
1119.09
1119.3
1118.97
1119.17
1119.99
1120.2
1119.86
1120.1
1120.32
1120.57
1120.44
1120.8
1120.56
1120.89
1120.41
1120.84
1120.57
1120.94
1120.34
1120.92
1120.44
1120.96
1120.66
1121.18
1120.96
1121.49
1119.3
1119.41
1119.39
1119.52
1118.71
1118.74
1118.8
1118.83
1119.94
1120.28
1119.87
1120.17
1119.53
1119.65
1119.71
1119.81
1118.94
1118.95
1119.11
1119.09
1120.09
1120.42
1120.29
1120.59
1120.52
1121.16
1121.07
1121.8
1120.47
1121.16
1120.98
1121.75
1120.66
1121.27
1121.2
1121.91
1120.87
1121.48
1121.38
1122.08
1120.48
1120.7
1120.88
1121.23
1120.45
1120.63
1120.94
1121.27
1120.39
1120.49
1121.05
1121.33
1119.28
1118.67
1119.87
1120.51
1121.31
1118.65
1119.23
1119.82
1120.49
1121.45
1118.7
1119.35
1120.1
1120.92
1121.76
1121.06
1121.21
1122.13
1122.44
1120.89
1121.04
1122.07
1122.38
1120.65
1120.77
1121.99
1122.3
1118.66
1118.73
1119.28
1119.37
1119.92
1120.02
1120.7
1120.82
1122.08
1122.42
1118.69
1118.77
1119.42
1119.62
1120.23
1120.49
1121.18
1121.5
1122.46
1122.86
1119.58
1119.93
1119.67
1120.03
1118.76
1118.78
1118.84
1118.83
1120.59
1121.13
1120.48
1120.98
1119.75
1120.17
1119.91
1120.35
1118.93
1118.95
1119.07
1119.1
1120.67
1121.27
1120.85
1121.48
1121.7
1122.39
1123.11
1123.99
1121.52
1122.19
1122.86
1123.68
1121.84
1122.56
1123.32
1124.23
1121.96
1122.73
1123.43
1124.33
1121.25
1121.37
1122.21
1122.22
1121.09
1121.23
1122.17
1122.16
1120.86
1121.06
1122.13
1122.13
1118.9
1119.19
1119.55
1119.82
1120.17
1120.41
1120.95
1121.17
1122.2
1122.17
1118.93
1119.24
1119.89
1120.18
1120.73
1120.94
1121.58
1121.66
1122.44
1122.35
1117.91
1117.9
1118.09
1118.01
1118.25
1118.23
1118.44
1118.35
1117.67
1117.5
1117.84
1117.66
1117.68
1117.52
1117.86
1117.69
1117.83
1117.67
1117.81
1117.69
1117.55
1117.7
1118.18
1118.38
1118.52
1118.72
1118.05
1118.28
1117.98
1118.19
1117.91
1118.12
1117.39
1117.31
1117.55
1117.46
1117.39
1117.29
1117.56
1117.45
1117.41
1117.28
1117.53
1117.39
1117.73
1117.56
1117.91
1117.7
1117.83
1117.82
1117.92
1117.88
1118.21
1118.2
1118.3
1118.28
1117.66
1117.6
1117.58
1117.55
1118.04
1117.96
1118.19
1118.08
1118.44
1118.38
1118.59
1118.51
1117.78
1117.68
1117.91
1117.77
1117.47
1117.32
1117.44
1117.35
1117.4
1117.28
1117.4
1117.33
1117.58
1117.41
1117.5
1117.4
1117.71
1117.51
1117.59
1117.47
1117.32
1117.35
1117.25
1117.3
1117.34
1117.37
1117.25
1117.3
1117.37
1117.4
1117.26
1117.31
1117.8
1118.17
1117.56
1117.39
1117.29
1118.18
1117.82
1117.58
1117.41
1117.32
1118.16
1117.79
1117.54
1117.39
1117.33
1117.47
1117.67
1117.44
1117.66
1117.47
1117.66
1117.43
1117.64
1117.47
1117.64
1117.41
1117.6
1118.18
1118.25
1117.82
1117.92
1117.6
1117.72
1117.45
1117.6
1117.4
1117.57
1118.14
1118.16
1117.78
1117.81
1117.54
1117.62
1117.42
1117.55
1117.4
1117.57
1117.76
1117.73
1117.83
1117.76
1118.14
1118.08
1118.22
1118.11
1117.59
1117.6
1117.53
1117.57
1117.94
1117.84
1118.05
1117.96
1118.34
1118.2
1118.47
1118.33
1117.68
1117.67
1117.78
1117.78
1117.46
1117.55
1117.46
1117.62
1117.42
1117.54
1117.42
1117.6
1117.53
1117.61
1117.52
1117.68
1117.63
1117.71
1117.59
1117.76
1117.91
1118.14
1117.97
1118.25
1117.88
1118.13
1117.95
1118.24
1117.86
1118.13
1117.91
1118.24
1118.41
1118.71
1118.1
1118.4
1117.91
1118.22
1117.81
1118.13
1117.88
1118.27
1118.29
1118.63
1117.97
1118.32
1117.82
1118.19
1117.79
1118.19
1117.91
1118.36
1117.41
1117.8
1118.47
1119.57
1117.55
1117.93
1118.61
1119.72
1117.4
1117.79
1118.45
1119.57
1117.54
1117.91
1118.59
1119.69
1117.4
1117.78
1118.41
1119.49
1117.48
1117.85
1118.49
1119.58
1117.63
1117.99
1118.64
1119.73
1117.74
1118.08
1118.72
1119.79
1117.43
1117.8
1118.42
1119.48
1117.5
1117.87
1118.43
1119.38
1117.41
1117.79
1118.38
1119.38
1117.49
1117.87
1118.41
1119.33
1117.49
1117.85
1118.48
1119.56
1117.53
1117.89
1118.46
1119.41
1117.56
1117.9
1118.53
1119.58
1117.58
1117.92
1118.48
1119.41
1117.37
1117.75
1118.38
1119.44
1117.43
1117.81
1118.38
1119.32
1117.38
1117.76
1118.38
1119.43
1117.45
1117.83
1118.39
1119.32
1117.4
1117.78
1118.38
1119.39
1117.46
1117.84
1118.4
1119.31
1117.44
1117.82
1118.38
1119.34
1117.49
1117.87
1118.41
1119.3
1117.5
1117.88
1118.41
1119.28
1117.58
1117.96
1118.5
1119.17
1117.78
1118.16
1118.7
1119.33
1117.58
1117.96
1118.49
1119.17
1117.78
1118.16
1118.7
1119.33
1117.59
1117.97
1118.5
1119.17
1117.78
1118.16
1118.71
1119.34
1117.59
1117.97
1118.5
1119.17
1117.79
1118.17
1118.72
1119.34
1117.6
1117.98
1118.5
1119.17
1117.79
1118.19
1118.73
1119.35
1117.66
1118.04
1118.56
1119.22
1117.83
1118.22
1118.76
1119.38
1117.62
1118.01
1118.53
1119.19
1117.81
1118.2
1118.74
1119.36
1117.7
1118.07
1118.59
1119.25
1117.88
1118.26
1118.79
1119.41
1117.76
1118.11
1118.62
1119.27
1117.94
1118.31
1118.83
1119.44
1121.21
1122.52
1123.63
1124.53
1125.23
1121.3
1122.59
1123.7
1124.6
1125.29
1121.21
1122.52
1123.63
1124.53
1125.23
1121.3
1122.59
1123.69
1124.59
1125.29
1121.21
1122.52
1123.63
1124.53
1125.22
1121.25
1122.55
1123.65
1124.55
1125.24
1121.31
1122.6
1123.7
1124.59
1125.29
1121.32
1122.6
1123.7
1124.59
1125.28
1121.21
1122.53
1123.64
1124.53
1125.23
1121.29
1122.63
1123.74
1124.64
1125.33
1121.22
1122.54
1123.65
1124.55
1125.25
1121.3
1122.64
1123.75
1124.65
1125.34
1121.23
1122.54
1123.65
1124.54
1125.23
1121.31
1122.65
1123.76
1124.65
1125.34
1121.25
1122.55
1123.65
1124.54
1125.23
1121.34
1122.67
1123.77
1124.67
1125.36
1121.22
1122.55
1123.66
1124.57
1125.26
1121.31
1122.66
1123.78
1124.68
1125.37
1121.22
1122.56
1123.67
1124.57
1125.26
1121.31
1122.67
1123.78
1124.68
1125.37
1121.23
1122.57
1123.69
1124.59
1125.28
1121.32
1122.68
1123.79
1124.69
1125.38
1121.27
1122.62
1123.73
1124.63
1125.32
1121.35
1122.7
1123.82
1124.72
1125.41
1121.33
1122.68
1123.8
1124.7
1125.39
1124.42
1124.67
1124.46
1124.71
1124.53
1124.79
1124.66
1124.91
1124.86
1125.08
1125.37
1125.66
1125.14
1125.4
1125.57
1125.89
1125.75
1126.07
1127.62
1130.89
1133.53
1135.52
1136.84
1127.55
1130.85
1133.52
1135.53
1136.87
1127.66
1130.91
1133.54
1135.53
1136.85
1127.59
1130.88
1133.54
1135.55
1136.89
1127.72
1130.96
1133.57
1135.56
1136.87
1127.65
1130.93
1133.57
1135.57
1136.91
1127.82
1131.03
1133.62
1135.59
1136.9
1127.75
1130.99
1133.61
1135.61
1136.94
1127.96
1131.12
1133.69
1135.65
1136.95
1127.86
1131.07
1133.67
1135.65
1136.98
1128.3
1131.36
1133.87
1135.79
1137.08
1128.24
1131.32
1133.86
1135.8
1137.1
1128.13
1131.23
1133.78
1135.72
1137.01
1128.04
1131.18
1133.75
1135.72
1137.03
1128.46
1131.49
1133.97
1135.87
1137.14
1128.43
1131.47
1133.97
1135.88
1137.17
1128.62
1131.61
1134.07
1135.95
1137.22
1128.61
1131.61
1134.08
1135.97
1137.25
1118.57
1118.89
1118.67
1118.34
1117.92
1118.09
1117.91
1118.11
1118.25
1118.46
1118.25
1118.43
1121.57
1121.52
1121.38
1121.17
1120.88
1120.54
1121.59
1121.54
1121.42
1121.22
1120.96
1120.65
1121.71
1121.92
1121.65
1121.85
1121.5
1121.68
1121.26
1121.4
1120.93
1121.05
1120.56
1120.68
1120.17
1119.82
1119.53
1119.29
1119.11
1118.98
1120.32
1120.01
1119.72
1119.49
1119.31
1119.18
1121.31
1121.21
1121.23
1121.36
1121.62
1121.26
1121.15
1121.17
1121.31
1121.57
1121.12
1121.02
1121.03
1121.17
1121.43
1120.91
1120.8
1120.82
1120.95
1121.21
1120.62
1120.51
1120.52
1120.65
1120.91
1120.27
1120.15
1120.16
1120.29
1120.54
1121.33
1121.23
1121.25
1121.39
1121.65
1121.28
1121.18
1121.2
1121.33
1121.59
1121.16
1121.05
1121.07
1121.2
1121.46
1120.95
1120.85
1120.86
1120.99
1121.25
1120.69
1120.58
1120.59
1120.72
1120.98
1120.38
1120.26
1120.26
1120.39
1120.65
1121.45
1121.35
1121.37
1121.51
1121.76
1121.66
1121.56
1121.58
1121.72
1121.97
1121.39
1121.29
1121.31
1121.44
1121.7
1121.59
1121.49
1121.51
1121.65
1121.9
1121.24
1121.14
1121.15
1121.29
1121.55
1121.42
1121.32
1121.33
1121.47
1121.73
1121
1120.89
1120.9
1121.04
1121.3
1121.14
1121.03
1121.05
1121.18
1121.44
1120.67
1120.56
1120.57
1120.7
1120.96
1120.78
1120.67
1120.68
1120.81
1121.07
1120.29
1120.17
1120.18
1120.31
1120.56
1120.41
1120.29
1120.3
1120.42
1120.68
1119.89
1119.77
1119.76
1119.89
1120.14
1119.53
1119.4
1119.38
1119.5
1119.74
1119.22
1119.07
1119.04
1119.14
1119.38
1118.96
1118.79
1118.73
1118.82
1119.05
1118.76
1118.56
1118.49
1118.56
1118.78
1118.61
1118.4
1118.32
1118.38
1118.6
1120.04
1119.92
1119.92
1120.04
1120.29
1119.72
1119.58
1119.57
1119.69
1119.93
1119.43
1119.28
1119.25
1119.36
1119.6
1119.18
1119.01
1118.97
1119.07
1119.31
1118.98
1118.8
1118.75
1118.84
1119.07
1118.84
1118.66
1118.6
1118.68
1118.91
1121.54
1121.43
1121.24
1120.97
1120.62
1120.22
1121.56
1121.46
1121.27
1121.02
1120.7
1120.35
1121.68
1121.89
1121.56
1121.76
1121.35
1121.52
1121.05
1121.18
1120.66
1120.76
1120.22
1120.31
1119.8
1119.41
1119.11
1118.92
1118.85
1118.89
1119.98
1119.65
1119.37
1119.19
1119.1
1119.11
1121.28
1121.18
1121.2
1121.34
1121.6
1121.17
1121.07
1121.09
1121.22
1121.48
1120.98
1120.88
1120.89
1121.03
1121.29
1120.71
1120.6
1120.62
1120.75
1121.01
1120.36
1120.25
1120.27
1120.4
1120.66
1119.95
1119.84
1119.85
1119.98
1120.24
1121.31
1121.2
1121.22
1121.36
1121.62
1121.2
1121.1
1121.11
1121.25
1121.51
1121.01
1120.91
1120.93
1121.06
1121.32
1120.76
1120.65
1120.67
1120.8
1121.06
1120.44
1120.33
1120.34
1120.48
1120.73
1120.08
1119.96
1119.97
1120.1
1120.36
1121.42
1121.32
1121.34
1121.48
1121.73
1121.63
1121.53
1121.55
1121.69
1121.94
1121.3
1121.2
1121.22
1121.36
1121.61
1121.5
1121.4
1121.42
1121.55
1121.81
1121.09
1120.99
1121
1121.14
1121.4
1121.26
1121.16
1121.18
1121.32
1121.57
1120.79
1120.68
1120.7
1120.83
1121.09
1120.92
1120.81
1120.83
1120.97
1121.22
1120.4
1120.29
1120.3
1120.44
1120.7
1120.5
1120.39
1120.4
1120.53
1120.79
1119.95
1119.84
1119.85
1119.98
1120.24
1120.05
1119.93
1119.94
1120.07
1120.33
1119.52
1119.4
1119.41
1119.53
1119.79
1119.13
1119
1118.99
1119.11
1119.37
1118.82
1118.67
1118.65
1118.76
1119.01
1118.6
1118.44
1118.4
1118.49
1118.73
1118.51
1118.32
1118.26
1118.34
1118.57
1118.52
1118.31
1118.23
1118.3
1118.52
1119.71
1119.59
1119.59
1119.71
1119.97
1119.36
1119.23
1119.23
1119.35
1119.6
1119.08
1118.94
1118.92
1119.03
1119.28
1118.88
1118.73
1118.7
1118.8
1119.04
1118.78
1118.61
1118.57
1118.66
1118.89
1118.77
1118.59
1118.54
1118.62
1118.85
1118.9
1118.82
1119.36
1119.8
1119.83
1119.93
1119.53
1118.64
1118.77
1118.66
1119.05
1118.95
1118.91
1119.16
1119.22
1119.38
1118.6
1118.6
1118.89
1118.92
1118.74
1118.78
1119.01
1119.07
1119.46
1119.46
1119.14
1119.13
1118.74
1118.71
1118.58
1118.67
1118.71
1118.59
1118.98
1119.32
1118.91
1118.31
1118.01
1117.88
1117.9
1118.06
1118.39
1118.14
1118.03
1118.07
1118.27
1119.08
1118.95
1118.95
1119.07
1119.33
1119.52
1119.4
1119.41
1119.54
1119.79
1119.55
1119.43
1119.43
1119.56
1119.81
1119.65
1119.54
1119.54
1119.67
1119.93
1119.25
1119.13
1119.12
1119.25
1119.51
1118.12
1117.85
1117.73
1117.76
1117.92
1118.26
1118
1117.9
1117.94
1118.12
1118.28
1118.07
1117.99
1118.05
1118.27
1118.6
1118.37
1118.28
1118.34
1118.55
1118.63
1118.47
1118.43
1118.53
1118.77
1118.56
1118.38
1118.32
1118.4
1118.63
1118.86
1118.71
1118.68
1118.79
1119.04
1118.91
1118.76
1118.73
1118.83
1119.07
1119.08
1118.94
1118.92
1119.03
1119.27
1118.09
1117.83
1117.72
1117.75
1117.92
1118.24
1118.04
1117.97
1118.05
1118.27
1118.58
1118.43
1118.39
1118.49
1118.74
1118.61
1118.46
1118.44
1118.54
1118.79
1118.42
1118.25
1118.21
1118.3
1118.54
1118.47
1118.31
1118.28
1118.38
1118.62
1118.72
1118.57
1118.55
1118.67
1118.91
1118.78
1118.64
1118.63
1118.74
1118.99
1119.18
1119.05
1119.04
1119.15
1119.4
1119.18
1119.05
1119.05
1119.17
1119.42
1118.85
1118.7
1118.68
1118.8
1119.04
1118.84
1118.71
1118.69
1118.81
1119.06
1118.19
1117.91
1117.79
1117.81
1117.98
1118.31
1118.09
1118
1118.05
1118.27
1118.15
1117.91
1117.81
1117.85
1118.05
1118.32
1118.13
1118.07
1118.15
1118.38
1118.38
1118.21
1118.17
1118.26
1118.5
1118.23
1118.03
1117.96
1118.03
1118.25
1118.69
1118.54
1118.52
1118.63
1118.88
1119.04
1118.91
1118.91
1119.03
1119.28
1118.61
1118.46
1118.43
1118.54
1118.79
1119.04
1118.8
1118.71
1118.75
1118.92
1119.24
1119.05
1119.07
1118.59
1118.58
1119.09
1119.13
1118.6
1118.62
1119.54
1120.04
1119.54
1120
1119.59
1119.56
1119.91
1119.04
1119.06
1118.57
1118.56
1119.08
1119.12
1118.59
1118.62
1119.57
1120.1
1119.57
1120.04
1119.61
1119.57
1119.95
1119.04
1119.07
1118.57
1118.56
1119.09
1119.13
1118.59
1118.62
1119.59
1120.25
1119.59
1120.16
1119.64
1119.59
1120.05
1119.14
1119.16
1118.65
1118.64
1119.18
1119.23
1118.67
1118.7
1119.72
1120.41
1119.71
1120.32
1119.75
1119.7
1120.19
1119.29
1119.31
1118.81
1118.79
1119.34
1119.39
1118.83
1118.85
1119.88
1120.52
1119.87
1120.45
1119.9
1119.86
1120.32
1119.57
1119.59
1119.1
1119.08
1119.61
1119.65
1119.11
1119.14
1120.13
1120.72
1120.11
1120.65
1120.13
1120.09
1120.52
1117.85
1117.85
1118.18
1118.18
1117.85
1117.86
1118.19
1118.2
1117.61
1117.42
1117.62
1117.45
1117.62
1117.65
1117.51
1117.83
1117.83
1118.16
1118.16
1117.84
1117.85
1118.17
1118.18
1117.58
1117.42
1117.6
1117.46
1117.61
1117.65
1117.52
1117.82
1117.83
1118.16
1118.15
1117.85
1117.86
1118.17
1118.19
1117.59
1117.49
1117.62
1117.52
1117.64
1117.68
1117.57
1117.9
1117.91
1118.23
1118.22
1117.93
1117.96
1118.25
1118.27
1117.69
1117.63
1117.72
1117.66
1117.75
1117.8
1117.71
1118.07
1118.08
1118.39
1118.38
1118.1
1118.14
1118.41
1118.43
1117.88
1117.84
1117.91
1117.87
1117.95
1118
1117.91
1118.37
1118.38
1118.69
1118.68
1118.41
1118.44
1118.71
1118.72
1118.19
1118.12
1118.21
1118.14
1118.24
1118.29
1118.19
1121.66
1121.58
1121.42
1121.29
1121.07
1120.94
1120.58
1120.48
1120.67
1120.55
1121.05
1120.93
1121.33
1121.21
1121.55
1121.47
1120.98
1120.81
1120.75
1120.53
1120.38
1120.17
1120.18
1119.91
1121.96
1122.46
1121.88
1122.34
1121.74
1122.23
1121.6
1122.06
1121.26
1121.52
1121.03
1121.35
1121.94
1121.66
1120.47
1120.07
1120.26
1119.95
1119.94
1119.6
1119.68
1119.42
1120.98
1120.55
1120.74
1120.41
1121.38
1120.97
1123.04
1123.38
1122.81
1123.15
1122.8
1123.23
1122.52
1122.91
1122.46
1123.04
1122.03
1122.56
1121.7
1122.23
1121.33
1121.86
1120.86
1120.79
1120.51
1120.47
1120.08
1119.98
1119.8
1119.7
1121.19
1121.3
1121.61
1121.63
1120.21
1120.21
1119.94
1119.99
1119.55
1119.47
1119.31
1119.27
1120.84
1121.02
1120.54
1120.79
1121.85
1122.5
1122.11
1122.84
1122.31
1122.97
1122.47
1123.23
1121.47
1122.1
1121.82
1122.53
1121.14
1121.76
1121.59
1122.29
1123.86
1124.61
1123.98
1124.72
1123.63
1124.32
1123.85
1124.57
1123.26
1123.79
1123.65
1124.24
1121.37
1120.44
1122.21
1122.85
1123.53
1120.56
1121.54
1122.55
1123.23
1123.97
1120.33
1121.21
1122.06
1122.86
1123.64
1125.3
1125.63
1125.69
1125.98
1124.94
1125.32
1125.45
1125.76
1124.33
1124.76
1125.04
1125.42
1120.76
1121.1
1121.84
1122.3
1122.83
1123.31
1123.62
1124.1
1124.67
1125.16
1120.48
1120.75
1121.46
1121.95
1122.39
1122.94
1123.3
1123.91
1124.46
1125.1
1121.03
1121.58
1120.64
1121.12
1120.07
1120.21
1119.72
1119.79
1121.61
1122.26
1122
1122.69
1120.3
1120.79
1120.09
1120.55
1119.44
1119.5
1119.24
1119.28
1121.26
1121.93
1121.04
1121.69
1122.72
1123.52
1124.1
1125.07
1123.03
1123.87
1124.3
1125.25
1122.43
1123.21
1123.9
1124.86
1122.16
1122.95
1123.61
1124.52
1125.71
1125.83
1126.09
1125.78
1125.81
1126.05
1125.47
1125.63
1125.91
1125.61
1125.65
1125.91
1125.01
1125.23
1125.54
1125.35
1125.44
1125.72
1121.51
1121.98
1122.49
1122.79
1123.2
1123.64
1123.76
1124.11
1124.5
1124.46
1124.75
1125.12
1125.15
1125.28
1125.61
1121.13
1121.66
1122.23
1122.59
1123.14
1123.71
1123.59
1124.07
1124.58
1124.4
1124.75
1125.19
1125.14
1125.31
1125.7
1119.33
1119.16
1119.18
1118.96
1119.8
1119.59
1119.63
1119.37
1119.21
1118.85
1119.18
1118.83
1119.11
1118.78
1119.04
1118.73
1118.8
1118.95
1118.72
1118.88
1118.72
1118.61
1118.79
1118.6
1119.16
1118.94
1118.71
1118.52
1118.58
1118.4
1118.54
1118.36
1118.47
1118.14
1118.54
1118.23
1118.43
1118.09
1118.45
1118.13
1118.4
1118.02
1118.32
1117.97
1118.26
1117.95
1118.11
1117.85
1118.92
1118.77
1118.73
1118.56
1119.43
1119.29
1119.2
1119.05
1118.41
1118.2
1118.57
1118.39
1118.54
1118.38
1118.36
1118.22
1118.98
1118.85
1118.77
1118.66
1118.24
1118.04
1118.07
1117.9
1118.13
1117.83
1117.96
1117.78
1118.26
1117.94
1118.12
1117.91
1118
1117.73
1117.82
1117.66
1117.85
1117.62
1117.7
1117.56
1118.47
1118.62
1118.17
1118.33
1118.47
1118.63
1118.15
1118.31
1118.47
1118.61
1118.12
1118.27
1119.06
1119.65
1118.69
1118.39
1118.08
1119.76
1119.18
1118.83
1118.54
1118.21
1119.54
1118.97
1118.56
1118.28
1118.05
1118.88
1119.24
1118.59
1118.95
1118.86
1119.21
1118.55
1118.89
1118.82
1119.14
1118.47
1118.79
1119.91
1120.18
1119.29
1119.57
1118.93
1119.22
1118.66
1118.95
1118.35
1118.65
1119.63
1119.79
1119.04
1119.2
1118.64
1118.84
1118.39
1118.62
1118.18
1118.48
1118.73
1118.78
1118.51
1118.5
1119.27
1119.29
1119
1118.95
1118.2
1118.26
1118.38
1118.5
1118.35
1118.28
1118.19
1118.1
1118.8
1118.7
1118.62
1118.5
1118.05
1118.07
1117.9
1117.91
1118
1118.14
1117.89
1118.13
1118.17
1118.36
1118.03
1118.3
1117.86
1117.96
1117.78
1117.99
1117.74
1117.83
1117.68
1117.86
1119.74
1120.23
1120.69
1119.56
1120.11
1120.58
1119.67
1120.17
1120.64
1119.48
1120.04
1120.52
1119.58
1120.07
1120.55
1119.35
1119.94
1120.45
1120.56
1121.03
1121.54
1119.95
1120.44
1120.96
1119.61
1120.12
1120.65
1119.37
1119.88
1120.39
1119.21
1119.83
1120.39
1120.08
1120.59
1121.17
1119.51
1120.03
1120.61
1119.19
1119.75
1120.34
1119.05
1119.63
1120.23
1119.07
1119.72
1120.34
1117.99
1118.19
1118.73
1119.75
1118.09
1118.3
1118.86
1119.89
1117.95
1118.16
1118.7
1119.73
1118.01
1118.24
1118.81
1119.84
1117.9
1118.12
1118.64
1119.64
1117.88
1118.12
1118.68
1119.7
1117.9
1118.17
1118.77
1119.81
1117.84
1118.14
1118.77
1119.82
1117.78
1118.04
1118.58
1119.6
1117.8
1118.08
1118.57
1119.48
1117.87
1118.1
1118.59
1119.53
1117.9
1118.14
1118.61
1119.46
1117.71
1118
1118.59
1119.63
1117.71
1118.02
1118.55
1119.48
1117.64
1117.95
1118.56
1119.61
1117.64
1117.97
1118.51
1119.44
1118.01
1118.18
1118.67
1119.63
1118.14
1118.28
1118.7
1119.54
1118
1118.17
1118.66
1119.62
1118.13
1118.28
1118.7
1119.53
1117.98
1118.17
1118.64
1119.57
1118.11
1118.27
1118.69
1119.51
1117.98
1118.18
1118.63
1119.5
1118.08
1118.26
1118.68
1119.48
1117.99
1118.21
1118.64
1119.44
1118.33
1118.45
1118.83
1119.42
1118.56
1118.66
1119.04
1119.6
1118.31
1118.44
1118.82
1119.41
1118.53
1118.65
1119.04
1119.6
1118.27
1118.41
1118.8
1119.4
1118.49
1118.62
1119.02
1119.59
1118.2
1118.38
1118.78
1119.38
1118.43
1118.59
1119.01
1119.57
1118.12
1118.33
1118.74
1119.35
1118.36
1118.56
1118.99
1119.56
1117.96
1118.24
1118.7
1119.33
1118.17
1118.45
1118.92
1119.51
1118.04
1118.29
1118.72
1119.34
1118.26
1118.5
1118.95
1119.54
1117.89
1118.2
1118.68
1119.32
1118.09
1118.4
1118.89
1119.49
1117.82
1118.16
1118.65
1119.3
1118.01
1118.35
1118.86
1119.47
1121.32
1122.59
1123.67
1124.56
1125.25
1121.4
1122.65
1123.74
1124.62
1125.31
1121.31
1122.58
1123.67
1124.56
1125.25
1121.38
1122.64
1123.73
1124.62
1125.3
1121.29
1122.57
1123.66
1124.55
1125.24
1121.33
1122.59
1123.68
1124.57
1125.26
1121.36
1122.63
1123.72
1124.61
1125.3
1121.34
1122.61
1123.71
1124.6
1125.29
1121.28
1122.57
1123.66
1124.55
1125.24
1121.35
1122.66
1123.76
1124.65
1125.34
1121.3
1122.59
1123.68
1124.57
1125.26
1121.37
1122.68
1123.78
1124.67
1125.36
1121.28
1122.57
1123.66
1124.55
1125.24
1121.35
1122.67
1123.77
1124.66
1125.35
1121.26
1122.56
1123.65
1124.55
1125.24
1121.35
1122.67
1123.78
1124.67
1125.36
1121.33
1122.62
1123.71
1124.59
1125.28
1121.42
1122.73
1123.82
1124.71
1125.39
1121.33
1122.62
1123.71
1124.6
1125.28
1121.42
1122.73
1123.82
1124.71
1125.4
1121.33
1122.63
1123.72
1124.61
1125.3
1121.42
1122.74
1123.83
1124.72
1125.4
1121.36
1122.67
1123.76
1124.65
1125.34
1121.44
1122.76
1123.85
1124.74
1125.42
1121.41
1122.73
1123.83
1124.72
1125.4
1127.31
1127.53
1127.21
1127.43
1127.04
1127.28
1126.82
1127.11
1126.61
1126.94
1126.27
1126.66
1126.44
1126.82
1126.1
1126.47
1125.92
1126.26
1129.74
1132.41
1134.67
1136.43
1137.64
1129.7
1132.39
1134.67
1136.45
1137.68
1129.69
1132.39
1134.65
1136.42
1137.63
1129.66
1132.37
1134.66
1136.45
1137.67
1129.61
1132.34
1134.62
1136.4
1137.61
1129.58
1132.33
1134.63
1136.42
1137.65
1129.49
1132.27
1134.58
1136.36
1137.58
1129.47
1132.26
1134.59
1136.39
1137.63
1129.36
1132.18
1134.51
1136.32
1137.54
1129.36
1132.19
1134.53
1136.35
1137.59
1129.07
1131.97
1134.35
1136.19