/*--------------------------------*- C++ -*----------------------------------*\
  =========                 |
  \\      /  F ield         | OpenFOAM: The Open Source CFD Toolbox
   \\    /   O peration     | Website:  https://openfoam.org
    \\  /    A nd           | Version:  13
     \\/     M anipulation  |
\*---------------------------------------------------------------------------*/
FoamFile
{
    format      ascii;
    class       volScalarField;
    location    "409.831886";
    object      T;
}
// * * * * * * * * * * * * * * * * * * * * * * * * * * * * * * * * * * * * * //

dimensions      [0 0 0 1 0 0 0];

internalField   nonuniform List<scalar> 
5712
(
792.477
793.636
795.466
797.265
799.829
801.708
805.689
807.271
804.268
806.069
799.668
801.452
796.243
797.89
793.626
794.865
801.374
803.65
804.59
807.814
808.568
811.489
811.598
815.412
788.807
782.679
790.034
784.296
791.659
785.777
793.605
788.033
798.347
794.727
801.538
796.952
789.592
793.384
808.571
814.524
811.791
816.33
815.217
820.37
819.03
823.028
802.308
808.426
805.698
810.435
797.246
803.165
775.629
771.399
778.615
774.194
778.738
773.414
782.324
777.396
783.271
776.088
788.909
782.156
793.412
786.7
798.693
791.813
803.081
804.072
808.219
808.702
812.643
813.861
816.911
818.106
799.824
798.69
793.963
793.874
812.662
812.61
816.756
815.918
820.814
821.739
824.524
824.885
804.74
802.752
809.204
806.114
791.564
783.486
788.771
779.836
785.383
777.232
783.848
774.664
796.795
788.846
792.894
784.055
801.546
793.634
796.233
787.47
765.552
756.38
764.059
755.031
768.357
759.722
765.628
756.965
773.094
766.324
768.32
761.121
795.964
807.051
785.889
778.346
770.166
805.113
793.406
781.346
773.332
764.637
808.548
798.086
788.005
778.499
769.201
747.964
743.526
743.784
739.883
752.08
746.999
746.579
742.367
759.357
753.605
751.452
746.451
801.91
796.713
789.193
782.504
777.455
770.702
768.215
761.668
756.236
749.922
806.056
801.694
794.382
787.474
783.526
775.902
772.807
764.795
759.443
751.305
800.619
793.06
806.185
799.408
812.163
809.184
817.276
815.159
794.485
785.955
789.117
780.072
810.963
804.163
814.217
807.722
821.474
819.416
824.616
822.884
799.387
790.696
802.611
794.121
781.267
771.348
765.159
753.567
776.919
766.487
762.159
750.748
785.265
775.652
767.997
756.596
789.058
779.323
771.834
760.995
741.551
739.135
735.471
740.892
739.433
736.034
744.171
741.302
737.4
742.895
741.221
737.548
749.563
745.932
741.552
745.965
743.728
739.588
790.39
783.426
776.321
775.293
769.176
762.942
764.099
758.755
753.264
756.189
751.594
746.385
748.483
745.558
740.693
795.673
787.751
779.632
778.274
770.193
762.334
766.659
759.45
752.416
757.389
751.685
745.435
748.81
745.125
739.497
821.226
823.662
823.634
826.86
815.543
818.495
818.239
821.999
821.568
825.951
822.241
826.305
823.186
827.087
824.372
828.008
828.111
825.769
829.611
826.814
828.289
830.27
829.665
832.956
825.293
828.854
829.86
833.121
831.975
835.019
831.61
834.796
830.332
834.112
829.675
833.073
831.225
835.046
831.242
834.627
832.202
836.311
833.77
837.336
835.03
837.985
837.783
839.974
826.609
828.63
829.873
832.085
820.588
822.3
824.27
826.095
833.664
836.325
830.724
833.232
833.037
835.103
836.186
837.787
827.761
829.401
831.156
832.328
836.516
839.043
839.456
841.47
836.702
839.642
838.914
840.378
834.254
837.596
836.179
838.075
839.107
841.516
841.335
842.397
841.73
843.527
843.489
844.177
829.476
826.815
833.353
830.73
829.757
826.967
833.777
831.067
830.208
827.707
834.476
832.055
823.84
816.606
828.279
831.786
835.275
814.783
821.904
825.889
829.325
833.159
818.155
825.222
830.246
833.513
835.825
822.666
817.192
826.601
821.321
823.168
817.89
827.346
822.263
824.316
819.247
828.78
824.002
812.267
807.775
819.833
815.221
824.003
819.322
827.22
822.499
830.918
826.358
816.415
813.449
823.66
820.658
828.551
825.137
831.577
827.573
833.64
828.978
828.551
826.896
832.058
831.19
821.973
820.508
826.053
825.593
835.793
833.923
832.72
830.197
834.851
834.603
837.513
837.525
829.32
829.444
832.246
832.686
838.351
837.022
840.771
839.669
837.859
834.933
838.343
834.371
835.066
831.549
836.148
831.743
840.213
837.825
840.287
836.761
842.28
840.098
842.117
839.017
809.92
802.777
796.158
812.456
804.377
797.716
811.009
803.739
796.945
813.721
805.553
798.579
812.691
805.486
798.541
815.782
807.172
799.697
801.881
794.845
787.545
809.183
801.868
794.347
813.223
805.595
797.915
816.088
808.46
800.973
818.027
808.904
800.721
808.483
800.702
792.333
815.478
807.507
799.012
819.342
810.923
802.147
820.93
812.122
803.266
820.212
810.565
801.537
834.735
830.021
820.231
803.715
833.421
828.448
818.368
801.736
835.394
830.537
820.707
804.032
834.622
829.387
819.207
802.507
836.273
831.204
821.743
805.511
836.789
831.216
821.165
804.589
836.733
830.664
819.922
802.948
837.883
831.227
820.03
802.89
838.412
832.574
822.699
806.221
838.179
832.077
822.96
808.077
836.897
831.567
822.594
807.278
836.523
830.927
822.427
808.406
839.696
833.358
822.735
805.656
839.649
833.097
823.466
808.232
841.031
834.201
823.19
806.154
840.967
834.01
824.092
808.898
834.371
830.077
821.114
805.546
832.288
828.52
820.773
807.138
834.577
830.182
821.327
805.847
832.408
828.515
820.802
807.283
834.887
830.29
821.692
806.631
832.9
828.713
820.975
807.608
835.03
830.177
821.962
807.745
833.374
828.872
821.211
808.197
834.905
829.778
821.892
808.824
829.189
825.878
818.836
809.1
825.779
822.757
815.668
806.675
829.606
826.107
819.013
809.289
826.212
822.972
815.799
806.769
830.371
826.514
819.258
809.462
826.972
823.345
815.998
806.939
831.478
827.129
819.724
809.867
828.004
823.884
816.324
807.182
832.906
827.939
820.292
810.314
829.213
824.51
816.683
807.434
835.669
829.549
821.094
810.714
832.305
826.334
817.839
808.225
834.305
828.734
820.671
810.483
830.759
825.407
817.25
807.834
836.921
830.321
821.489
810.909
833.766
827.228
818.388
808.649
838.142
831.123
822.032
811.346
835.137
828.11
818.974
809.11
779.77
761.046
745.604
733.51
724.677
778.696
760.209
744.837
732.775
723.963
779.917
761.12
745.65
733.543
724.705
778.914
760.346
744.936
732.857
724.036
780.188
761.238
745.723
733.599
724.753
779.719
760.999
745.519
733.399
724.556
779.335
760.601
745.108
732.984
724.144
779.644
760.815
745.26
733.101
724.244
780.38
761.345
745.788
733.643
724.788
779.566
760.157
744.585
732.469
723.644
780.18
761.04
745.493
733.366
724.524
779.277
759.867
744.321
732.226
723.413
780.431
761.368
745.782
733.619
724.756
779.504
760.049
744.453
732.327
723.499
780.75
761.573
745.924
733.727
724.85
779.617
760.063
744.422
732.271
723.434
779.673
760.663
745.195
733.112
724.292
778.438
759.218
743.786
731.755
722.973
779.719
760.647
745.161
733.071
724.248
778.483
759.223
743.778
731.741
722.957
779.728
760.538
745.025
732.928
724.104
778.495
759.169
743.704
731.659
722.874
779.392
760.031
744.502
732.412
723.597
778.307
758.931
743.454
731.408
722.624
778.657
759.261
743.752
731.685
722.891
726.251
723.805
727.433
724.939
729.628
726.843
732.471
729.17
735.425
731.532
740.324
735.883
737.866
733.49
742.706
738.458
745.148
741.304
701.188
674.774
653.263
636.907
625.855
701.529
674.944
653.197
636.745
625.519
701.724
675.05
653.429
637.022
625.952
702.021
675.158
653.362
636.797
625.591
702.805
675.636
653.794
637.28
626.164
703.065
675.721
653.711
637.042
625.792
704.286
676.48
654.332
637.661
626.476
704.42
676.492
654.2
637.387
626.073
706.044
677.558
655.038
638.165
626.889
705.911
677.406
654.801
637.82
626.431
709.877
680.206
656.902
639.565
628.08
709.44
679.816
656.488
639.098
627.541
707.957
678.847
655.926
638.819
627.437
707.577
678.508
655.55
638.375
626.907
711.78
681.59
657.918
640.351
628.759
711.493
681.308
657.588
639.954
628.287
713.707
683.016
658.975
641.171
629.464
713.692
682.885
658.782
640.884
629.062
829.629
825.604
821.221
825.802
817.907
818.685
819.022
820.106
817.878
819.331
812.451
814.095
809.314
811.132
813.353
814.902
814.82
815.92
814.961
815.809
824.208
824.346
805.552
798.895
797.97
796.734
802.622
810.825
804.242
810.598
798.28
790.07
807.685
806.22
799.658
805.413
803.021
801.933
815.917
814.764
809.97
810.721
813.127
813.988
811.416
809.309
802.159
802.851
806.736
807.616
821.557
822.02
819.369
819.442
816.648
817.212
811.11
805.413
811.617
832.114
835.981
837.422
836.79
834.124
830.34
833.644
834.89
833.934
830.57
809.641
811.509
811.617
809.872
806.23
802.789
804.487
804.458
802.643
799.021
801.907
803.667
803.707
801.952
798.369
800.602
802.288
802.26
800.457
796.86
806.644
808.46
808.532
806.776
803.153
819.336
824.35
826.852
827.065
825.138
813.234
818.636
821.31
821.581
819.42
816.774
820.628
822.522
822.099
819.099
806.553
811.724
814.175
814.222
811.652
798.024
803.259
805.719
805.796
803.273
812.646
815.449
816.44
815.35
812.017
811.911
815.401
816.994
816.35
813.25
805.111
808.438
809.919
809.222
806.146
810.04
812.52
813.227
811.939
808.527
807.887
810.63
811.588
810.497
807.201
806.444
808.829
809.465
808.145
804.746
823.795
828.061
830.071
829.926
827.646
820.305
823.576
824.958
824.148
820.919
814.72
817.292
818.064
816.804
813.368
815.281
817.642
818.208
816.789
813.269
818.037
820.739
821.614
820.42
816.996
818.657
821.101
821.73
820.343
816.812
815.774
817.897
818.225
816.619
812.997
813.624
815.722
816.042
814.441
810.841
806.368
808.411
808.716
807.144
803.619
806.959
808.878
809.054
807.378
803.795
811.181
813.453
813.957
812.511
809.01
811.944
814.074
814.435
812.875
809.31
829.227
833.214
834.83
834.348
831.862
827.664
830.81
831.973
830.962
827.577
825.831
829.409
831.001
830.432
827.641
824.522
827.297
828.192
826.983
823.504
821.462
824.026
824.75
823.423
819.903
822.66
825.809
827.085
826.193
822.905
815.502
817.669
818.045
816.476
812.877
809.561
811.501
811.684
809.998
806.388
816.127
818.423
818.922
817.447
813.891
830.118
827.37
829.827
826.756
835.674
832.446
835.886
833.044
829.466
828.998
826.484
826.944
835.433
835.071
832.421
833.088
824.075
818.111
821.605
815.902
823.962
818.58
821.051
815.797
820.81
823.441
822.04
823.85
819.294
816.659
822.786
819.527
824.041
820.558
828.484
825.072
830.2
826.916
817.281
813.842
819.039
815.201
813.038
809.026
812.598
807.747
810.664
806.053
812.948
807.217
810.457
805.383
813.869
806.174
812.048
805.194
808.699
801.726
804.207
797.173
826.962
825.203
825.462
823.472
834.295
833.554
832.716
831.99
818.472
813.929
819.855
815.695
823.131
821.391
820.181
818.855
830.433
830.026
827.661
827.667
816.114
811.811
812.955
809.135
811.127
802.7
804.032
794.713
812.15
803.088
805.565
795.735
808.849
800.807
801.996
792.97
805.545
797.659
799.273
790.453
812.466
809.923
807.1
803.051
812.874
810.797
806.316
802.431
813.601
812.519
804.895
801.694
827.405
834.981
819.982
811.932
801.614
835.285
828.106
820.719
812.25
800.01
834.429
826.254
816.82
806.517
795.899
805.595
803.495
792.117
788.08
807.594
805.496
792.849
788.818
810.538
808.798
793.699
789.652
835.102
833.852
827.452
826.031
819.431
818.022
809.693
807.934
792.322
788.041
834.314
832.894
825.343
822.47
815.119
811.597
803.31
799.202
787.567
782.488
822.81
817.89
821.111
816.02
833.002
832.034
831.428
830.581
809.699
802.759
811.612
805.043
819.58
813.728
817.053
810.795
829.655
828.406
827.317
825.797
808.198
800.405
805.504
797.239
796.111
787.438
779.092
768.465
798.733
790.299
782.447
772.454
794.014
785.03
776.195
765.267
792.024
782.431
774.454
763.717
802.491
800.53
790.302
789.812
804.447
802.272
790.752
790.406
807.287
804.203
791.162
790.618
831.224
826.626
823.279
819.014
815.638
811.973
805.982
802.566
790.107
789.692
830.14
825.175
818.47
814.002
808.116
804.726
797.64
795.882
786.788
787.085
844.621
844.628
841.636
842.652
840.601
840.545
837.511
838.524
847.484
849.143
844.696
846.431
847.34
848.926
844.28
846.002
844.591
847.248
844.972
846.972
848.467
845.901
839.835
836.492
835.754
832.508
840.967
837.217
842.063
838.653
842.366
838.851
849.836
849.611
847.19
847.101
849.868
849.796
847.008
847.175
849.825
850.037
847.619
848.124
844.412
845.237
841.216
842.61
845.11
844.962
843.631
843.789
840.456
840.284
838.914
838.902
846.639
846.885
848.03
847.89
841.5
842.158
838.973
840.163
836.715
837.088
834.084
834.915
844.582
845.432
842.142
843.621
848.512
848.954
848.33
848.148
849.795
849.871
849.195
848.798
846.544
847.411
847.05
847.127
844.229
845.536
845.417
845.775
851.09
850.822
850.692
850.157
850.963
850.646
850.66
850.055
850.581
850.328
850.479
849.933
845.692
841.124
848.56
850.177
849.979
841.144
845.547
848.391
850.003
849.654
841.054
845.541
848.338
849.551
848.998
849.195
846.243
848.258
845.192
849.271
846.505
848.395
845.453
849.294
846.839
848.564
845.86
841.092
839.861
845.484
843.997
848.02
846.203
849.303
847.197
848.526
846.066
841.242
840.516
845.635
844.722
848.153
846.727
849.019
846.989
848.033
845.535
845.301
844.983
843.845
843.88
840.732
840.837
839.077
839.617
846.46
845.544
847.711
846.529
841.861
842.158
839.845
839.999
836.957
837.738
834.775
835.391
844.739
843.966
842.896
841.95
847.338
845.413
846.271
843.536
848.391
846.237
847.246
844.449
845.95
844.077
845.062
842.213
844.264
842.226
843.697
840.772
842.591
839.087
840.73
836.697
843.099
839.334
841.034
836.767
843.549
839.34
841.468
836.502
837.213
832.532
841.1
836.313
843.19
838.403
843.917
838.991
841.652
835.773
838.176
832.808
842.046
836.444
843.519
837.718
843.17
837.188
840.711
834.072
845.637
837.385
825.208
807.006
843.369
835.194
822.953
804.788
845.732
837.528
825.397
807.074
843.517
835.43
823.308
805.215
845.767
837.638
826.078
808.302
844.293
836.325
824.67
806.911
841.752
834.091
822.276
804.521
839.703
832.472
820.887
803.472
844.916
837.019
825.785
808.332
843.709
835.867
825.658
810.045
845.418
837.357
826.569
809.924
844.11
836.094
826.008
810.889
843.837
836.197
824.731
807.064
843.041
835.431
825.162
809.529
842.462
835.184
823.883
806.645
842.117
834.802
824.673
809.349
846.458
838.182
826.586
809.187
845.568
837.315
826.719
811.19
846.289
838.043
826.615
809.32
845.319
837.081
826.576
811.189
845.886
837.689
826.667
809.859
844.969
836.756
826.386
811.231
845.133
836.989
826.57
810.752
844.497
836.315
826.216
811.509
844.112
835.998
826.142
811.7
843.31
835.094
825.049
813.741
840.299
832.116
822.03
811.618
843.276
835.062
825.058
813.794
840.249
832.063
821.992
811.583
843.141
834.936
824.935
813.665
840.101
831.914
821.85
811.497
842.944
834.753
824.88
813.656
839.91
831.719
821.706
811.386
842.618
834.458
824.775
813.663
839.599
831.405
821.462
811.196
841.259
833.356
823.811
812.877
838.529
830.539
820.806
810.591
842.029
833.962
824.324
813.287
839.198
831.062
821.21
810.976
840.322
832.647
823.174
812.294
837.552
829.801
820.211
810.113
839.279
831.902
822.599
811.817
836.386
828.962
819.579
809.597
781.664
762.178
746.295
733.964
725.025
780.5
761.296
745.502
733.212
724.299
781.647
762.152
746.28
733.957
725.022
780.493
761.295
745.518
733.238
724.329
781.716
762.146
746.277
733.962
725.031
781.032
761.787
746.001
733.716
724.799
780.249
761.151
745.444
733.206
724.314
779.991
761.024
745.388
733.185
724.308
781.565
762.05
746.218
733.925
725.004
780.613
760.773
744.959
732.715
723.832
781.576
761.865
745.995
733.695
724.776
780.527
760.599
744.766
732.517
723.636
781.249
761.857
746.081
733.815
724.907
780.218
760.47
744.71
732.495
723.628
781.034
761.744
746.029
733.795
724.902
779.867
760.211
744.512
732.331
723.48
781.657
761.834
745.908
733.58
724.65
780.481
760.408
744.509
732.229
723.336
781.585
761.746
745.829
733.509
724.584
780.434
760.359
744.468
732.192
723.303
781.406
761.523
745.624
733.32
724.405
780.274
760.203
744.332
732.071
723.189
780.888
760.904
745.033
732.76
723.863
779.878
759.844
744.009
731.771
722.902
780.035
760.065
744.24
732.005
723.136
764.546
761.632
764.109
761.133
763.109
760.063
761.511
758.548
758.944
756.429
752.423
749.166
755.367
752.537
749.856
746.255
747.502
743.838
727.856
692.818
665.983
646.492
633.912
728.639
693.211
666.023
646.391
633.597
727.477
692.563
665.808
646.364
633.81
728.149
692.854
665.833
646.18
633.46
726.703
692.053
665.463
646.111
633.603
727.396
692.367
665.506
645.943
633.267
725.497
691.267
664.927
645.714
633.272
726.287
691.653
665.023
645.586
632.97
723.782
690.168
664.167
645.141
632.789
724.854
690.747
664.401
645.119
632.576
719.643
687.425
662.235
643.684
631.58
720.361
687.845
662.391
643.636
631.378
721.749
688.872
663.265
644.459
632.219
722.8
689.476
663.527
644.471
632.049
717.628
685.96
661.167
642.869
630.903
718.01
686.169
661.192
642.739
630.647
715.642
684.469
660.059
642.013
630.181
715.816
684.482
659.975
641.808
629.849
833.864
830.04
833.628
837.644
844.769
841.938
844.714
841.481
840.713
837.402
840.827
837.98
774.368
775.368
777.758
781.514
786.569
792.678
774.282
775.235
777.511
781.039
785.675
791.151
772.341
769.491
773.463
770.759
776.129
773.752
780.358
778.58
786.002
784.777
792.573
791.233
799.299
805.697
811.373
816.243
820.004
822.677
797.049
802.866
808.206
812.791
816.387
818.849
777.802
779.163
778.918
777.063
773.621
778.819
780.191
779.952
778.097
774.647
781.246
782.642
782.415
780.557
777.086
785.062
786.497
786.29
784.428
780.925
790.203
791.698
791.526
789.665
786.121
796.429
798.011
797.896
796.046
792.459
777.718
779.083
778.841
776.99
773.55
778.688
780.064
779.829
777.979
774.532
781
782.401
782.18
780.328
776.862
784.588
786.028
785.829
783.977
780.482
789.307
790.806
790.643
788.794
785.264
794.891
796.472
796.364
794.529
790.961
775.751
777.101
776.854
775.01
771.589
772.869
774.205
773.96
772.131
768.741
776.891
778.252
778.012
776.166
772.736
774.156
775.505
775.266
773.435
770.034
779.596
780.982
780.753
778.903
775.449
777.193
778.569
778.342
776.506
773.078
783.891
785.319
785.111
783.255
779.764
782.095
783.518
783.314
781.471
778.001
789.63
791.122
790.951
789.093
785.556
788.397
789.891
789.729
787.886
784.366
796.325
797.908
797.795
795.948
792.362
794.979
796.568
796.469
794.64
791.075
803.203
804.907
804.881
803.066
799.441
809.788
811.656
811.761
810.012
806.366
815.698
817.782
818.069
816.43
812.791
820.863
823.218
823.736
822.247
818.644
824.949
827.571
828.3
826.949
823.388
827.84
830.61
831.44
830.15
826.6
800.925
802.615
802.589
800.784
797.183
806.905
808.736
808.819
807.068
803.446
812.433
814.433
814.655
812.982
809.354
817.222
819.407
819.782
818.201
814.58
821.005
823.352
823.857
822.353
818.74
823.58
826.013
826.579
825.105
821.487
774.773
776.589
779.816
784.441
790.414
797.505
774.687
776.452
779.554
783.924
789.408
795.703
772.758
769.925
774.724
772.073
778.259
775.98
783.409
781.789
790.026
789
797.731
796.755
805.079
812.154
818.007
822.175
824.176
824.19
802.292
808.501
813.743
817.552
819.639
820.008
778.21
779.571
779.323
777.464
774.017
780.049
781.42
781.173
779.306
775.839
783.317
784.71
784.468
782.588
779.088
788.005
789.433
789.203
787.306
783.761
794.066
795.545
795.336
793.422
789.82
801.272
802.824
802.651
800.726
797.059
778.126
779.489
779.245
777.39
773.944
779.913
781.288
781.045
779.181
775.717
783.056
784.452
784.216
782.34
778.846
787.488
788.92
788.696
786.808
783.271
793.056
794.539
794.339
792.438
788.851
799.458
801.011
800.849
798.944
795.302
776.171
777.521
777.272
775.424
771.997
773.307
774.643
774.395
772.563
769.167
778.161
779.522
779.274
777.416
773.969
775.48
776.828
776.581
774.738
771.32
781.741
783.125
782.882
781.009
777.526
779.436
780.809
780.568
778.708
775.25
786.959
788.38
788.148
786.256
782.721
785.322
786.737
786.507
784.625
781.109
793.672
795.147
794.935
793.022
789.423
792.636
794.11
793.902
791.998
788.412
801.497
803.045
802.867
800.937
797.266
800.511
802.058
801.883
799.962
796.303
808.989
810.642
810.529
808.61
804.882
816.234
818.023
818.008
816.124
812.353
822.297
824.271
824.404
822.601
818.821
826.738
828.964
829.313
827.652
823.907
829.064
831.572
832.16
830.671
826.998
829.328
832.051
832.825
831.48
827.887
806.176
807.824
807.722
805.827
802.134
812.537
814.308
814.295
812.433
808.705
817.954
819.879
819.989
818.193
814.453
821.957
824.063
824.326
822.625
818.901
824.232
826.516
826.934
825.341
821.653
824.728
827.137
827.669
826.162
822.516
826.829
826.4
812.993
805.178
805.811
803.431
810.379
832.192
830.498
829.924
825.588
823.296
825.449
819.292
819.007
815.708
831.897
829.745
823.554
822.394
826.189
824.621
819.711
818.924
813.16
812.341
818.84
818.232
829.232
827.675
830.895
827.344
826.158
829.534
820.472
814.25
822.212
834.638
838.304
839.592
838.816
835.995
832.339
835.549
836.696
835.646
832.21
817.061
818.829
818.787
816.879
813.089
809.075
810.713
810.585
808.653
804.917
809.733
811.395
811.288
809.37
805.636
807.298
808.917
808.778
806.848
803.129
814.379
816.092
816.011
814.087
810.311
839.16
842.428
843.474
842.442
839.523
837.244
840.344
841.236
840.078
836.974
835.188
837.937
838.696
837.302
833.638
831.648
834.397
835.058
833.712
830.243
827.82
829.989
830.273
828.552
824.767
830.3
832.731
833.234
831.666
827.943
823.624
825.631
825.789
823.997
820.21
823.402
825.478
825.702
823.961
820.203
819.948
821.887
822
820.194
816.431
838.769
842.015
843.045
841.999
839.035
834.796
837.394
838.032
836.55
832.837
828.021
830.136
830.371
828.614
824.807
826.778
828.815
828.985
827.185
823.366
830.817
833.068
833.415
831.728
827.935
829.13
831.281
831.547
829.807
826
824.005
825.968
826.081
824.252
820.444
823.155
825.057
825.116
823.251
819.431
817.269
819.083
819.089
817.216
813.443
816.398
818.16
818.117
816.211
812.428
823.105
825.045
825.141
823.305
819.501
822.448
824.339
824.391
822.525
818.71
836.611
840.041
841.209
840.309
837.395
833.182
836.102
837.01
835.759
832.188
836.916
839.895
840.867
839.72
836.483
832.278
834.801
835.393
833.892
830.188
830.822
833.114
833.503
831.851
828.077
834.631
837.277
837.974
836.544
832.856
824.774
826.741
826.853
825.02
821.203
818.346
820.136
820.111
818.208
814.41
826.587
828.616
828.78
826.975
823.157
821.218
824.942
826.606
826.274
824.076
819.551
831.089
830.718
836.773
836.995
830.271
829.566
836.396
835.846
824.785
818.195
824.653
818.754
823.909
824.112
819.741
831.345
830.939
837.092
837.357
830.449
829.72
836.649
835.971
824.54
817.621
824.425
818.339
823.707
824.051
819.379
831.353
830.909
837.227
837.544
830.375
829.6
836.702
835.972
824.31
815.918
824.178
816.861
823.432
823.789
818.129
830.105
829.657
836.084
836.428
829.071
828.17
835.521
834.688
822.615
813.724
822.546
814.731
821.857
822.27
816.259
827.752
827.316
833.669
834.018
826.719
825.677
833.1
832.251
820.241
811.917
820.204
812.705
819.597
819.837
814.186
823.482
823.072
829.224
829.565
822.551
821.639
828.665
827.868
816.461
808.871
816.486
809.598
815.961
816.233
811.079
845.912
845.845
841.864
841.988
845.578
845.281
841.574
841.151
848.579
850.414
848.365
850.083
848.166
847.687
849.387
846.3
846.172
842.211
842.385
845.813
845.399
841.836
841.354
849.094
850.559
848.788
850.131
848.413
847.785
849.367
846.523
846.315
842.389
842.627
845.835
845.308
841.908
841.291
848.983
849.715
848.602
849.321
848.047
847.374
848.597
845.378
845.112
841.253
841.535
844.543
843.873
840.709
840.044
847.534
847.579
847.094
847.204
846.374
845.572
846.512
842.829
842.534
838.766
839.065
841.862
841.019
838.204
837.481
844.707
844.396
844.231
844.08
843.434
842.533
843.493
838.12
837.818
834.177
834.479
837.148
836.381
833.611
832.903
839.968
840.15
839.514
839.8
838.82
838.034
839.199
792.275
793.372
795.422
797.226
799.796
801.678
805.666
807.249
804.242
806.045
799.633
801.418
796.197
797.846
793.381
794.56
801.351
803.635
804.569
807.8
808.55
811.477
811.582
815.401
788.652
782.565
789.821
784.126
791.624
785.75
793.578
788.015
798.328
794.705
801.523
796.936
789.571
793.367
808.557
814.516
811.781
816.322
815.206
820.362
819.021
823.021
802.295
808.417
805.687
810.427
797.234
803.157
775.526
771.299
778.46
774.042
778.721
773.399
782.313
777.386
783.257
776.077
788.896
782.146
793.401
786.691
798.686
791.806
803.07
804.064
808.21
808.695
812.634
813.853
816.902
818.1
799.813
798.683
793.952
793.866
812.654
812.604
816.75
815.913
820.807
821.733
824.518
824.881
804.732
802.746
809.197
806.108
791.554
783.477
788.764
779.83
785.373
777.223
783.841
774.657
796.787
788.839
792.888
784.05
801.539
793.628
796.228
787.465
765.433
756.255
763.974
754.949
768.35
759.719
765.615
756.955
773.085
766.318
768.31
761.113
795.956
807.045
785.881
778.338
770.158
805.107
793.4
781.339
773.325
764.63
808.542
798.078
787.998
778.492
769.194
747.838
743.403
743.711
739.817
752.08
747.002
746.574
742.365
759.353
753.603
751.447
746.448
801.905
796.709
789.187
782.499
777.45
770.697
768.209
761.665
756.231
749.918
806.05
801.689
794.376
787.469
783.52
775.896
772.801
764.789
759.437
751.301
800.613
793.054
806.179
799.403
812.157
809.179
817.27
815.154
794.479
785.95
789.11
780.066
810.958
804.159
814.213
807.718
821.469
819.412
824.612
822.88
799.382
790.69
802.607
794.117
781.262
771.343
765.154
753.562
776.913
766.481
762.153
750.743
785.26
775.647
767.992
756.591
789.053
779.319
771.83
760.991
741.444
739.04
735.383
740.824
739.372
735.979
744.174
741.303
737.398
742.891
741.215
737.541
749.562
745.93
741.548
745.962
743.723
739.582
790.385
783.422
776.317
775.289
769.172
762.938
764.095
758.751
753.26
756.186
751.59
746.382
748.48
745.554
740.689
795.669
787.747
779.629
778.27
770.189
762.331
766.654
759.446
752.412
757.384
751.681
745.431
748.806
745.121
739.493
821.218
823.655
823.627
826.854
815.53
818.486
818.228
821.991
821.478
825.86
822.111
826.175
823.18
827.082
824.372
828.008
828.107
825.763
829.605
826.809
828.284
830.267
829.66
832.951
825.286
828.848
829.855
833.117
831.971
835.016
831.607
834.793
830.257
834.058
829.559
832.98
831.22
835.042
831.24
834.626
832.198
836.308
833.767
837.334
835.027
837.983
837.78
839.973
826.603
828.625
829.867
832.081
820.581
822.293
824.263
826.09
833.659
836.321
830.719
833.228
833.032
835.099
836.182
837.783
827.755
829.396
831.151
832.323
836.512
839.039
839.452
841.467
836.698
839.639
838.911
840.375
834.25
837.593
836.176
838.072
839.104
841.513
841.332
842.394
841.727
843.525
843.486
844.175
829.429
826.783
833.326
830.715
829.754
826.965
833.773
831.063
830.205
827.704
834.472
832.051
823.835
816.6
828.275
831.782
835.271
814.778
821.899
825.885
829.322
833.156
818.149
825.218
830.242
833.509
835.822
822.641
817.161
826.594
821.309
823.166
817.89
827.343
822.26
824.314
819.246
828.777
823.999
812.262
807.771
819.828
815.217
824
819.319
827.217
822.496
830.915
826.355
816.41
813.445
823.656
820.653
828.547
825.133
831.573
827.57
833.637
828.975
828.547
826.892
832.053
831.186
821.967
820.503
826.048
825.589
835.789
833.919
832.716
830.193
834.847
834.599
837.509
837.522
829.316
829.44
832.242
832.683
838.348
837.019
840.768
839.666
837.855
834.929
838.341
834.368
835.062
831.546
836.145
831.74
840.21
837.822
840.284
836.758
842.278
840.096
842.115
839.015
809.884
802.736
796.116
812.443
804.356
797.692
811.009
803.74
796.945
813.716
805.549
798.575
812.69
805.484
798.539
815.778
807.168
799.694
801.877
794.841
787.542
809.18
801.865
794.344
813.22
805.591
797.911
816.085
808.458
800.97
818.024
808.901
800.719
808.479
800.699
792.329
815.475
807.503
799.009
819.339
810.92
802.144
820.926
812.119
803.263
820.209
810.561
801.534
834.698
829.992
820.199
803.674
833.348
828.387
818.309
801.676
835.391
830.534
820.706
804.034
834.622
829.388
819.209
802.513
836.27
831.203
821.742
805.513
836.788
831.216
821.166
804.592
836.732
830.664
819.923
802.95
837.882
831.227
820.03
802.892
838.41
832.573
822.699
806.223
838.177
832.076
822.96
808.078
836.895
831.565
822.593
807.279
836.521
830.926
822.426
808.407
839.695
833.357
822.735
805.657
839.647
833.096
823.466
808.232
841.03
834.201
823.19
806.155
840.966
834.009
824.092
808.898
834.356
830.068
821.1
805.518
832.285
828.523
820.773
807.125
834.574
830.179
821.326
805.848
832.405
828.512
820.8
807.283
834.884
830.288
821.691
806.632
832.897
828.71
820.973
807.608
835.028
830.176
821.961
807.746
833.372
828.87
821.21
808.197
834.903
829.776
821.891
808.825
829.197
825.892
818.848
809.098
825.789
822.773
815.686
806.69
829.603
826.105
819.011
809.288
826.209
822.969
815.796
806.766
830.369
826.511
819.256
809.461
826.969
823.342
815.996
806.938
831.476
827.127
819.722
809.867
828.001
823.882
816.323
807.181
832.904
827.938
820.291
810.314
829.21
824.508
816.682
807.433
835.667
829.548
821.093
810.714
832.303
826.332
817.838
808.224
834.303
828.733
820.67
810.483
830.756
825.406
817.249
807.834
836.919
830.32
821.489
810.909
833.764
827.226
818.387
808.649
838.14
831.122
822.031
811.346
835.135
828.109
818.973
809.11
779.757
761.041
745.602
733.508
724.676
778.661
760.184
744.816
732.756
723.945
779.918
761.121
745.651
733.545
724.707
778.92
760.352
744.942
732.863
724.042
780.19
761.24
745.725
733.601
724.755
779.722
761.003
745.522
733.403
724.56
779.338
760.604
745.111
732.988
724.147
779.646
760.818
745.263
733.103
724.247
780.382
761.348
745.791
733.646
724.791
779.567
760.159
744.587
732.471
723.647
780.181
761.042
745.495
733.368
724.526
779.278
759.869
744.323
732.228
723.415
780.432
761.371
745.785
733.622
724.759
779.505
760.051
744.456
732.329
723.501
780.751
761.576
745.927
733.73
724.852
779.619
760.065
744.424
732.274
723.437
779.676
760.673
745.206
733.124
724.303
778.451
759.235
743.804
731.772
722.99
779.717
760.646
745.16
733.07
724.248
778.48
759.221
743.776
731.739
722.956
779.728
760.539
745.025
732.929
724.105
778.494
759.169
743.704
731.66
722.874
779.392
760.032
744.503
732.413
723.598
778.307
758.932
743.455
731.409
722.625
778.658
759.263
743.754
731.687
722.893
726.189
723.758
727.433
724.934
729.625
726.839
732.468
729.167
735.421
731.528
740.32
735.879
737.861
733.486
742.702
738.454
745.145
741.301
701.156
674.755
653.25
636.897
625.847
701.511
674.937
653.195
636.744
625.52
701.721
675.048
653.428
637.022
625.951
702.016
675.154
653.359
636.794
625.589
702.802
675.634
653.793
637.279
626.163
703.061
675.718
653.709
637.041
625.791
704.283
676.478
654.33
637.66
626.474
704.417
676.49
654.198
637.386
626.071
706.041
677.556
655.036
638.164
626.888
705.908
677.403
654.799
637.819
626.43
709.873
680.203
656.899
639.562
628.078
709.437