/*--------------------------------*- C++ -*----------------------------------*\
  =========                 |
  \\      /  F ield         | OpenFOAM: The Open Source CFD Toolbox
   \\    /   O peration     | Website:  https://openfoam.org
    \\  /    A nd           | Version:  13
     \\/     M anipulation  |
\*---------------------------------------------------------------------------*/
FoamFile
{
    format      ascii;
    class       volScalarField;
    location    "104.831886";
    object      T;
}
// * * * * * * * * * * * * * * * * * * * * * * * * * * * * * * * * * * * * * //

dimensions      [0 0 0 1 0 0 0];

internalField   nonuniform List<scalar> 
5712
(
909.313
909.054
908.619
908.219
907.55
907.148
906.039
905.716
906.308
905.931
907.493
907.11
908.345
907.979
908.977
908.701
907.251
906.741
906.563
905.859
905.42
904.763
904.794
903.962
910.271
911.837
909.992
911.452
909.621
911.118
909.187
910.597
908.142
908.94
907.411
908.419
910.23
909.372
905.703
904.439
905.024
904.086
904.043
902.986
903.232
902.432
907.272
905.95
906.514
905.517
908.512
907.229
913.627
914.673
912.879
913.962
912.9
914.217
912.026
913.229
911.839
913.626
910.515
912.162
909.499
911.124
908.355
910.003
906.898
906.676
905.801
905.701
904.475
904.182
903.614
903.319
907.903
908.243
909.207
909.289
904.874
904.892
904.037
904.219
902.835
902.592
902.102
901.969
906.84
907.377
905.902
906.678
909.961
911.953
910.762
913.015
911.381
913.432
911.864
914.212
908.796
910.725
909.858
912.063
907.772
909.668
909.149
911.317
916.139
918.458
916.52
918.831
915.461
917.611
916.157
918.358
914.306
915.949
915.536
917.343
908.468
905.592
911.073
913.038
915.153
905.974
909.012
912.11
914.213
916.513
905.27
907.979
910.604
913.087
915.508
920.6
921.616
921.812
922.721
919.518
920.687
921.084
922.067
917.638
918.949
919.838
921.011
906.604
907.637
909.926
911.354
912.983
914.475
915.431
916.917
918.682
920.187
905.733
906.565
908.766
910.266
911.617
913.337
914.456
916.324
918.033
920.014
907.422
909.116
906.204
907.705
904.446
904.893
903.365
903.591
909.219
911.239
910.41
912.554
905.169
906.678
904.507
905.946
902.494
902.705
901.872
902.015
908.131
910.194
907.462
909.477
912.651
915.119
916.902
919.918
913.607
916.194
917.533
920.488
911.766
914.159
916.295
919.264
910.929
913.346
915.413
918.223
921.865
922.25
923.056
922.103
922.206
922.934
921.171
921.666
922.523
921.582
921.728
922.515
919.738
920.417
921.381
920.79
921.054
921.941
908.907
910.367
911.932
912.865
914.13
915.504
915.872
916.946
918.147
918.042
918.927
920.072
920.169
920.563
921.606
907.735
909.367
911.134
912.25
913.956
915.704
915.347
916.837
918.393
917.852
918.937
920.299
920.146
920.676
921.881
902.16
901.634
901.699
901.024
903.632
902.978
903.099
902.293
901.795
900.656
901.669
900.606
901.495
900.475
901.271
900.312
900.536
900.977
900.266
900.781
900.295
899.932
900.501
899.892
901.651
900.966
900.242
899.673
899.844
899.295
899.724
899.165
899.51
898.497
899.701
898.74
899.385
898.335
899.437
898.459
899.277
898.125
899.038
897.976
898.859
897.913
898.38
897.587
900.912
900.443
900.319
899.788
902.459
902.048
901.756
901.307
899.309
898.677
899.824
899.25
899.736
899.221
899.152
898.719
901.088
900.668
900.439
900.105
898.799
898.178
898.269
897.735
898.456
897.528
897.936
897.366
898.87
897.884
898.436
897.785
898.043
897.212
897.498
897.004
897.584
896.874
897.112
896.69
899.514
899.967
898.589
899.071
899.516
899.997
898.528
899.029
899.518
899.953
898.429
898.881
901.328
903.154
900.177
899.276
898.305
903.502
901.692
900.607
899.723
898.704
902.826
901.052
899.779
898.917
898.199
900.774
901.896
899.892
900.984
900.726
901.793
899.768
900.817
900.586
901.593
899.526
900.505
903.953
904.801
902.037
902.902
900.935
901.827
900.097
901.009
899.142
900.065
903.099
903.583
901.28
901.77
900.046
900.641
899.246
899.984
898.621
899.55
900.313
900.454
899.641
899.586
901.969
902.054
901.157
900.989
898.659
898.853
899.234
899.591
899.126
898.918
898.628
898.367
900.526
900.21
899.963
899.584
898.198
898.258
897.753
897.766
898.04
898.496
897.729
898.473
898.568
899.163
898.142
898.991
897.61
897.944
897.373
898.019
897.249
897.533
897.058
897.619
903.428
904.948
906.38
902.874
904.592
906.029
903.229
904.768
906.233
902.63
904.361
905.86
902.94
904.449
905.937
902.235
904.048
905.648
905.958
907.413
908.991
904.089
905.601
907.215
903.038
904.618
906.261
902.297
903.874
905.462
901.803
903.71
905.454
904.492
906.063
907.85
902.731
904.336
906.131
901.75
903.455
905.305
901.299
903.098
904.965
901.372
903.37
905.288
898.037
898.639
900.327
903.487
898.32
898.969
900.717
903.906
897.916
898.543
900.237
903.427
898.099
898.792
900.557
903.756
897.756
898.42
900.042
903.137
897.689
898.44
900.174
903.336
897.743
898.583
900.442
903.684
897.566
898.51
900.446
903.71
897.38
898.181
899.874
903.006
897.435
898.296
899.842
902.658
897.647
898.361
899.889
902.794
897.734
898.505
899.939
902.591
897.164
898.051
899.879
903.127
897.175
898.116
899.754
902.637
896.943
897.915
899.808
903.04
896.947
897.959
899.647
902.517
898.085
898.616
900.149
903.121
898.482
898.923
900.226
902.821
898.052
898.601
900.112
903.066
898.466
898.929
900.225
902.796
898.004
898.589
900.051
902.918
898.384
898.9
900.199
902.738
897.993
898.626
900.013
902.711
898.308
898.88
900.163
902.631
898.033
898.719
900.042
902.512
899.096
899.457
900.627
902.473
899.787
900.097
901.293
903.023
899.021
899.416
900.595
902.437
899.708
900.059
901.27
903.007
898.884
899.344
900.551
902.407
899.571
899.993
901.236
902.976
898.685
899.234
900.469
902.334
899.384
899.897
901.178
902.933
898.426
899.09
900.37
902.253
899.164
899.786
901.117
902.891
897.929
898.81
900.235
902.191
898.594
899.459
900.912
902.752
898.173
898.951
900.306
902.228
898.878
899.624
901.016
902.819
897.709
898.678
900.169
902.161
898.331
899.304
900.819
902.678
897.498
898.543
900.078
902.087
898.092
899.154
900.72
902.6
908.34
912.269
915.63
918.378
920.505
908.585
912.471
915.824
918.569
920.695
908.312
912.255
915.621
918.371
920.499
908.542
912.443
915.802
918.55
920.678
908.258
912.231
915.605
918.358
920.488
908.366
912.291
915.659
918.412
920.542
908.465
912.394
915.767
918.523
920.654
908.408
912.353
915.736
918.497
920.631
908.224
912.212
915.593
918.35
920.481
908.426
912.503
915.898
918.656
920.786
908.269
912.282
915.665
918.42
920.55
908.489
912.57
915.962
918.717
920.846
908.222
912.212
915.599
918.359
920.492
908.449
912.535
915.935
918.695
920.826
908.163
912.172
915.57
918.335
920.471
908.436
912.541
915.949
918.713
920.847
908.368
912.362
915.732
918.48
920.607
908.659
912.713
916.087
918.833
920.958
908.362
912.369
915.743
918.492
920.62
908.652
912.713
916.09
918.837
920.963
908.368
912.399
915.78
918.531
920.66
908.655
912.73
916.111
918.86
920.986
908.455
912.526
915.914
918.667
920.795
908.705
912.792
916.177
918.928
921.054
908.629
912.715
916.104
918.857
920.984
926.834
927.507
926.54
927.227
926.006
926.767
925.331
926.219
924.666
925.69
923.633
924.823
924.164
925.325
923.104
924.253
922.549
923.596
934.349
942.619
949.605
955.065
958.808
934.224
942.552
949.618
955.113
958.919
934.218
942.55
949.561
955.032
958.779
934.107
942.504
949.574
955.102
958.899
933.954
942.401
949.463
954.958
958.715
933.852
942.361
949.48
955.031
958.837
933.598
942.189
949.318
954.849
958.621
933.527
942.167
949.349
954.932
958.753
933.185
941.919
949.129
954.704
958.496
933.178
941.938
949.188
954.808
958.645
932.294
941.253
948.625
954.299
958.133
932.379
941.344
948.739
954.442
958.308
932.741
941.595
948.889
954.515
958.33
932.801
941.666
948.989
954.65
958.501
931.844
940.901
948.347
954.07
957.925
931.899
940.968
948.439
954.192
958.079
931.38
940.534
948.056
953.829
957.708
931.37
940.563
948.11
953.918
957.84
900.608
901.661
902.514
901.311
902.722
902.571
902.536
902.332
902.899
902.617
904.296
903.96
905.001
904.623
903.948
903.634
903.526
903.313
903.43
903.265
901.327
900.99
903.729
904.866
905.269
905.355
904.308
904.129
905.502
903.793
906.658
908.436
904.007
904.578
905.94
904.34
904.983
905.051
902.958
902.747
903.42
903.126
902.824
902.505
902.781
903.217
904.745
904.429
903.927
903.615
901.797
901.318
902.024
901.621
902.04
902.214
902.891
903.876
902.891
899.466
898.498
898.072
898.09
898.57
899.627
898.833
898.469
898.572
899.2
902.835
902.414
902.366
902.717
903.485
904.006
903.623
903.613
903.993
904.775
904.395
903.996
903.967
904.331
905.104
904.497
904.115
904.106
904.485
905.266
903.425
903.015
902.978
903.336
904.107
902.093
900.845
900.178
900.018
900.353
903.333
901.989
901.285
901.126
901.522
902.367
901.439
900.933
900.935
901.511
904.659
903.371
902.721
902.621
903.119
906.482
905.164
904.505
904.4
904.9
902.893
902.235
901.96
902.136
902.811
903.27
902.433
902.005
902.069
902.684
904.675
903.87
903.468
903.551
904.175
903.307
902.728
902.526
902.756
903.459
903.881
903.231
902.964
903.146
903.823
904.038
903.48
903.295
903.537
904.245
901.103
900.04
899.49
899.41
899.82
901.496
900.72
900.341
900.434
901.061
902.367
901.769
901.55
901.767
902.464
902.124
901.581
901.414
901.671
902.39
901.736
901.107
900.859
901.054
901.739
901.481
900.919
900.733
900.976
901.688
901.831
901.35
901.242
901.547
902.291
902.274
901.798
901.695
902.001
902.747
903.812
903.342
903.244
903.552
904.296
903.523
903.087
903.023
903.359
904.118
902.944
902.421
902.271
902.541
903.265
902.665
902.179
902.066
902.364
903.105
899.995
899.004
898.543
898.534
898.983
900.047
899.298
898.962
899.088
899.731
900.548
899.672
899.23
899.252
899.775
900.498
899.85
899.589
899.774
900.453
900.983
900.391
900.178
900.4
901.1
900.99
900.245
899.891
900
900.635
901.933
901.44
901.321
901.616
902.356
902.967
902.528
902.461
902.796
903.556
901.903
901.378
901.227
901.497
902.223
901.46
901.996
901.505
902.099
900.079
900.702
900.055
900.607
901.555
901.625
902.129
902.015
900.095
900.125
900.671
900.5
902.909
904.32
903.386
904.74
902.915
904.195
903.479
904.733
903.508
903.007
903.214
902.886
904.002
904.504
902.834
903.435
902.571
903.241
901.425
902.062
901.05
901.674
904.192
904.841
903.792
904.547
905.218
906.011
905.602
906.701
905.959
907.002
905.517
906.828
905.986
907.144
905.295
907.087
905.61
907.194
906.271
907.894
907.193
908.853
902.064
902.419
902.339
902.746
900.241
900.35
900.537
900.632
904.061
905.106
903.819
904.762
902.782
903.143
903.355
903.636
900.968
900.993
901.495
901.433
904.51
905.521
905.136
906.06
905.84
907.828
907.544
909.817
905.688
907.838
907.253
909.653
906.27
908.171
907.947
910.154
906.937
908.811
908.512
910.679
905.727
906.41
906.956
908.033
905.628
906.187
907.148
908.179
905.438
905.739
907.489
908.339
901.997
900.112
903.838
905.803
908.283
900.052
901.845
903.686
905.759
908.73
900.203
902.226
904.549
907.081
909.685
907.501
907.966
910.83
911.787
906.992
907.459
910.626
911.582
906.234
906.615
910.377
911.34
900.082
900.32
901.996
902.288
903.989
904.289
906.387
906.782
910.684
911.717
900.199
900.437
902.427
903.051
904.955
905.763
907.884
908.862
911.835
913.095
902.933
904.031
903.217
904.34
900.397
900.454
900.635
900.62
906.076
907.717
905.718
907.272
903.456
904.752
903.944
905.329
900.923
900.98
901.354
901.456
906.324
908.17
906.87
908.829
909.493
911.64
913.845
916.587
908.937
911.016
913.069
915.631
909.914
912.14
914.499
917.328
910.304
912.679
914.841
917.618
908.106
908.486
911.083
911.094
907.618
908.041
910.954
910.919
906.89
907.517
910.82
910.811
900.823
901.726
902.838
903.688
904.769
905.499
907.162
907.843
911.042
910.963
900.929
901.897
903.895
904.781
906.498
907.142
909.115
909.358
911.797
911.506
897.773
897.729
898.331
898.09
898.809
898.763
899.398
899.145
897.037
896.498
897.561
897.004
897.055
896.557
897.623
897.088
897.528
897.045
897.466
897.102
896.671
897.127
898.612
899.235
899.661
900.271
898.209
898.921
898.001
898.63
897.785
898.432
896.161
895.912
896.652
896.374
896.175
895.873
896.687
896.341
896.227
895.829
896.614
896.156
897.206
896.681
897.774
897.138
897.538
897.485
897.801
897.666
898.71
898.678
898.994
898.911
896.996
896.814
896.759
896.671
898.185
897.941
898.642
898.288
899.401
899.232
899.888
899.622
897.357
897.049
897.788
897.355
896.407
895.961
896.31
896.053
896.196
895.828
896.196
895.977
896.747
896.217
896.509
896.203
897.148
896.535
896.778
896.42
895.949
896.039
895.734
895.881
896.002
896.098
895.742
895.902
896.112
896.193
895.777
895.92
897.436
898.587
896.676
896.155
895.85
898.597
897.496
896.75
896.234
895.953
898.558
897.413
896.631
896.177
895.985
896.399
897.023
896.314
896.99
896.404
896.987
896.283
896.931
896.425
896.942
896.236
896.831
898.596
898.827
897.495
897.79
896.812
897.188
896.366
896.808
896.192
896.733
898.483
898.553
897.358
897.475
896.641
896.879
896.266
896.648
896.191
896.728
897.305
897.22
897.514
897.308
898.482
898.296
898.735
898.399
896.779
896.805
896.609
896.73
897.858
897.56
898.206
897.922
899.106
898.68
899.493
899.085
897.067
897.029
897.377
897.362
896.399
896.67
896.376
896.889
896.273
896.621
896.256
896.807
896.613
896.852
896.556
897.074
896.903
897.16
896.787
897.314
897.784
898.492
897.974
898.814
897.695
898.455
897.898
898.787
897.617
898.452
897.778
898.807
899.329
900.238
898.349
899.282
897.784
898.73
897.468
898.441
897.686
898.896
898.943
899.991
897.947
899.048
897.486
898.644
897.415
898.627
897.787
899.156
896.247
897.433
899.506
902.932
896.675
897.859
899.957
903.39
896.218
897.398
899.463
902.914
896.628
897.798
899.877
903.298
896.195
897.366
899.327
902.667
896.45
897.601
899.595
902.944
896.911
898.019
900.052
903.418
897.264
898.304
900.303
903.612
896.306
897.451
899.364
902.651
896.516
897.67
899.396
902.327
896.242
897.411
899.233
902.35
896.476
897.652
899.347
902.174
896.479
897.585
899.549
902.89
896.61
897.73
899.474
902.419
896.706
897.753
899.693
902.957
896.756
897.828
899.551
902.441
896.108
897.292
899.247
902.509
896.308
897.482
899.246
902.14
896.134
897.315
899.241
902.482
896.349
897.525
899.272
902.139
896.199
897.377
899.23
902.376
896.4
897.579
899.305
902.129
896.327
897.506
899.252
902.205
896.472
897.656
899.336
902.075
896.507
897.694
899.339
902.028
896.772
897.94
899.597
901.692
897.379
898.545
900.231
902.185
896.768
897.941
899.593
901.68
897.377
898.55
900.236
902.191
896.775
897.955
899.61
901.7
897.386
898.569
900.258
902.203
896.784
897.974
899.613
901.696
897.395
898.592
900.278
902.22
896.81
898.01
899.625
901.69
897.421
898.636
900.317
902.252
896.992
898.177
899.783
901.826
897.542
898.755
900.415
902.35
896.883
898.083
899.698
901.755
897.456
898.679
900.352
902.286
897.137
898.291
899.889
901.927
897.69
898.873
900.512
902.429
897.307
898.413
899.984
902.007
897.88
899.011
900.619
902.517
908.011
912.067
915.503
918.292
920.439
908.271
912.277
915.701
918.487
920.631
908.011
912.07
915.505
918.293
920.438
908.267
912.273
915.695
918.478
920.621
907.993
912.069
915.504
918.29
920.435
908.138
912.15
915.57
918.352
920.495
908.305
912.296
915.705
918.481
920.621
908.348
912.315
915.712
918.481
920.619
908.018
912.086
915.514
918.297
920.44
908.243
912.393
915.829
918.609
920.75
908.026
912.135
915.573
918.358
920.501
908.271
912.439
915.88
918.662
920.803
908.079
912.125
915.544
918.322
920.463
908.324
912.46
915.888
918.663
920.801
908.113
912.142
915.551
918.322
920.461
908.392
912.514
915.932
918.702
920.838
908.023
912.153
915.601
918.392
920.538
908.303
912.499
915.954
918.743
920.887
908.038
912.172
915.62
918.41
920.555
908.312
912.509
915.963
918.752
920.896
908.076
912.223
915.669
918.457
920.602
908.345
912.544
915.996
918.782
920.925
908.194
912.369
915.816
918.601
920.744
908.431
912.628
916.075
918.859
921
908.389
912.571
916.014
918.797
920.937
917.911
918.682
918.016
918.804
918.256
919.065
918.641
919.434
919.264
919.952
920.854
921.754
920.143
920.925
921.463
922.452
922.009
923.011
927.817
937.92
946.073
952.236
956.319
927.59
937.799
946.057
952.266
956.422
927.914
937.989
946.123
952.274
956.352
927.718
937.898
946.112
952.331
956.466
928.112
938.127
946.222
952.35
956.416
927.911
938.03
946.205
952.403
956.526
928.42
938.339
946.375
952.47
956.52
928.195
938.222
946.343
952.51
956.62
928.859
938.635
946.591
952.643
956.672
928.562
938.467
946.52
952.651
956.744
929.911
939.371
947.14
953.08
957.051
929.716
939.252
947.096
953.099
957.12
929.377
938.983
946.848
952.848
956.851
929.091
938.811
946.771
952.847
956.909
930.417
939.761
947.442
953.324
957.262
930.31
939.701
947.436
953.367
957.348
930.908
940.155
947.754
953.579
957.486
930.852
940.147
947.777
953.644
957.596
899.813
900.809
900.131
899.09
897.798
898.334
897.787
898.399
898.823
899.458
898.823
899.368
909.102
908.938
908.525
907.868
906.981
905.914
909.176
909.02
908.627
908.012
907.202
906.252
909.536
910.186
909.35
909.974
908.886
909.447
908.138
908.585
907.137
907.483
905.976
906.349
904.772
903.697
902.782
902.038
901.486
901.079
905.241
904.264
903.391
902.661
902.096
901.696
908.303
907.986
908.041
908.468
909.269
908.137
907.819
907.871
908.297
909.097
907.72
907.397
907.446
907.869
908.668
907.055
906.726
906.768
907.186
907.984
906.158
905.817
905.848
906.259
907.054
905.075
904.717
904.731
905.129
905.92
908.376
908.058
908.112
908.538
909.338
908.218
907.898
907.949
908.374
909.173
907.821
907.497
907.544
907.965
908.763
907.198
906.866
906.906
907.323
908.119
906.378
906.035
906.064
906.472
907.266
905.412
905.053
905.065
905.461
906.249
908.738
908.423
908.478
908.905
909.705
909.391
909.076
909.132
909.559
910.357
908.55
908.233
908.286
908.712
909.512
909.176
908.86
908.913
909.338
910.137
908.082
907.76
907.81
908.233
909.032
908.645
908.324
908.373
908.796
909.593
907.327
906.998
907.041
907.459
908.257
907.775
907.446
907.488
907.905
908.701
906.315
905.975
906.006
906.416
907.211
906.66
906.318
906.346
906.754
907.547
905.138
904.779
904.793
905.191
905.981
905.509
905.148
905.158
905.552
906.34
903.91
903.526
903.515
903.893
904.675
902.802
902.38
902.332
902.683
903.451
901.839
901.366
901.268
901.579
902.328
901.028
900.487
900.324
900.587
901.31
900.398
899.787
899.566
899.783
900.482
899.938
899.287
899.035
899.23
899.916
904.38
903.997
903.985
904.364
905.144
903.375
902.959
902.916
903.27
904.04
902.465
902.009
901.927
902.251
903.005
901.692
901.19
901.065
901.356
902.094
901.085
900.542
900.38
900.643
901.367
900.66
900.096
899.915
900.164
900.881
909.014
908.673
908.083
907.247
906.179
904.928
909.088
908.757
908.19
907.401
906.424
905.319
909.444
910.09
909.074
909.684
908.424
908.962
907.488
907.898
906.296
906.596
904.923
905.217
903.617
902.43
901.5
900.904
900.693
900.793
904.186
903.148
902.308
901.74
901.471
901.474
908.214
907.898
907.953
908.381
909.182
907.872
907.555
907.609
908.037
908.838
907.278
906.958
907.01
907.436
908.238
906.437
906.111
906.158
906.582
907.383
905.36
905.026
905.066
905.484
906.285
904.096
903.749
903.776
904.185
904.984
908.288
907.971
908.025
908.452
909.252
907.955
907.637
907.69
908.116
908.917
907.384
907.063
907.113
907.537
908.339
906.59
906.262
906.307
906.729
907.53
905.604
905.267
905.304
905.72
906.519
904.486
904.136
904.16
904.567
905.363
908.646
908.331
908.387
908.815
909.615
909.294
908.98
909.036
909.463
910.262
908.275
907.958
908.013
908.441
909.242
908.886
908.571
908.626
909.053
909.853
907.621
907.302
907.354
907.781
908.582
908.16
907.842
907.894
908.32
909.12
906.679
906.354
906.402
906.826
907.627
907.09
906.765
906.813
907.235
908.036
905.478
905.145
905.185
905.604
906.405
905.778
905.444
905.483
905.9
906.7
904.093
903.746
903.774
904.185
904.984
904.386
904.039
904.066
904.475
905.273
902.766
902.398
902.406
902.801
903.594
901.551
901.153
901.131
901.504
902.288
900.58
900.137
900.072
900.412
901.179
899.92
899.413
899.287
899.581
900.323
899.628
899.046
898.855
899.098
899.813
899.66
899.021
898.781
898.986
899.678
903.334
902.965
902.97
903.362
904.153
902.271
901.874
901.852
902.225
903.006
901.398
900.964
900.906
901.251
902.019
900.787
900.307
900.206
900.518
901.269
900.473
899.947
899.804
900.083
900.816
900.443
899.885
899.711
899.967
900.687
900.83
900.602
902.273
903.611
903.707
904.013
902.782
900.031
900.421
900.098
901.29
900.994
900.857
901.642
901.832
902.321
899.916
899.905
900.812
900.887
900.336
900.478
901.185
901.362
902.585
902.573
901.583
901.562
900.342
900.25
899.846
900.126
900.236
899.883
901.092
902.154
900.861
899.001
898.078
897.684
897.73
898.237
899.257
898.485
898.143
898.264
898.903
901.4
901.008
900.993
901.371
902.158
902.764
902.4
902.412
902.811
903.606
902.854
902.484
902.487
902.88
903.671
903.169
902.808
902.822
903.223
904.018
901.92
901.54
901.536
901.923
902.713
898.424
897.585
897.231
897.315
897.822
898.864
898.06
897.742
897.862
898.42
898.931
898.272
898.015
898.208
898.894
899.904
899.189
898.934
899.112
899.761
900.018
899.518
899.4
899.7
900.446
899.792
899.215
899.029
899.278
899.996
900.709
900.252
900.172
900.5
901.261
900.879
900.399
900.299
900.611
901.362
901.404
900.961
900.895
901.233
901.998
898.339
897.522
897.183
897.279
897.808
898.802
898.192
897.975
898.199
898.902
899.855
899.373
899.272
899.585
900.338
899.951
899.492
899.412
899.74
900.502
899.342
898.826
898.694
898.983
899.724
899.515
899.028
898.921
899.23
899.982
900.268
899.83
899.769
900.113
900.882
900.46
900.036
899.989
900.344
901.119
901.699
901.292
901.259
901.624
902.402
901.7
901.308
901.291
901.668
902.453
900.669
900.232
900.172
900.516
901.285
900.661
900.239
900.193
900.548
901.323
898.635
897.77
897.404
897.475
897.999
899.024
898.33
898.049
898.221
898.893
898.502
897.77
897.462
897.596
898.194
899.055
898.47
898.275
898.515
899.228
899.235
898.711
898.571
898.854
899.591
898.769
898.148
897.92
898.133
898.83
900.175
899.735
899.673
900.017
900.786
901.276
900.878
900.857
901.23
902.014
899.928
899.471
899.394
899.725
900.488
901.271
900.534
900.247
900.381
900.897
901.887
901.289
901.353
899.879
899.853
901.416
901.53
899.917
899.974
902.8
904.374
902.811
904.23
902.954
902.873
903.97
901.255
901.325
899.827
899.793
901.394
901.506
899.876
899.955
902.892
904.559
902.897
904.371
903.03
902.907
904.089
901.281
901.357
899.818
899.775
901.429
901.544
899.879
899.959
902.977
904.993
902.982
904.744
903.111
902.978
904.4
901.561
901.633
900.061
900.017
901.71
901.843
900.123
900.215
903.366
905.493
903.351
905.224
903.457
903.3
904.811
902.046
902.113
900.549
900.506
902.185
902.343
900.607
900.694
903.861
905.847
903.835
905.631
903.915
903.791
905.227
902.912
902.971
901.441
901.401
903.024
903.151
901.494
901.567
904.627
906.463
904.585
906.258
904.646
904.514
905.849
897.592
897.581
898.612
898.61
897.601
897.614
898.63
898.656
896.842
896.265
896.876
896.354
896.884
896.977
896.526
897.526
897.528
898.554
898.542
897.565
897.599
898.587
898.618
896.745
896.268
896.799
896.375
896.846
896.969
896.555
897.499
897.516
898.534
898.51
897.574
897.627
898.584
898.637
896.797
896.467
896.865
896.563
896.944
897.071
896.729
897.742
897.769
898.772
898.743
897.84
897.915
898.829
898.881
897.104
896.916
897.182
897.004
897.291
897.441
897.16
898.256
898.286
899.271
899.24
898.376
898.481
899.327
899.385
897.678
897.572
897.761
897.642
897.884
898.049
897.772
899.192
899.224
900.185
900.155
899.312
899.401
900.24
900.292
898.626
898.424
898.705
898.499
898.805
898.944
898.632
909.36
909.115
908.629
908.229
907.558
907.155
906.044
905.721
906.314
905.937
907.501
907.117
908.355
907.99
909.035
908.772
907.256
906.745
906.568
905.863
905.424
904.766
904.797
903.964
910.307
911.863
910.04
911.491
909.629
911.125
909.193
910.601
908.147
908.945
907.414
908.423
910.235
909.376
905.706
904.441
905.027
904.087
904.045
902.988
903.234
902.434
907.275
905.952
906.517
905.519
908.515
907.231
913.65
914.696
912.914
913.996
912.904
914.22
912.029
913.232
911.842
913.629
910.518
912.165
909.501
911.126
908.357
910.005
906.901
906.678
905.803
905.703
904.477
904.184
903.616
903.321
907.905
908.245
909.21
909.29
904.876
904.893
904.039
904.22
902.837
902.593
902.104
901.97
906.842
907.378
905.904
906.679
909.963
911.955
910.763
913.017
911.383
913.434
911.866
914.214
908.798
910.727
909.86
912.064
907.774
909.67
909.151
911.318
916.168
918.49
916.54
918.851
915.463
917.612
916.16
918.36
914.308
915.951
915.538
917.345
908.47
905.594
911.075
913.04
915.155
905.976
909.014
912.112
914.215
916.515
905.271
907.981
910.606
913.088
915.509
920.634
921.649
921.831
922.739
919.518
920.687
921.085
922.067
917.638
918.949
919.839
921.012
906.606
907.638
909.927
911.355
912.984
914.476
915.433
916.918
918.684
920.188
905.734
906.567
908.768
910.267
911.619
913.339
914.457
916.325
918.035
920.015
907.423
909.118
906.206
907.707
904.447
904.894
903.366
903.593
909.22
911.24
910.412
912.555
905.17
906.679
904.508
905.947
902.495
902.706
901.873
902.015
908.133
910.195
907.463
909.479
912.652
915.12
916.904
919.919
913.608
916.195
917.534
920.489
911.768
914.16
916.296
919.265
910.931
913.347
915.414
918.224
921.894
922.276
923.08
922.121
922.222
922.949
921.17
921.666
922.523
921.582
921.729
922.517
919.738
920.417
921.382
920.791
921.055
921.942
908.908
910.368
911.933
912.866
914.131
915.505
915.873
916.947
918.148
918.043
918.928
920.073
920.169
920.564
921.607
907.736
909.368
911.135
912.251
913.957
915.705
915.348
916.838
918.394
917.853
918.938
920.3
920.147
920.677
921.882
902.162
901.635
901.7
901.025
903.635
902.98
903.101
902.294
901.812
900.673
901.694
900.631
901.495
900.476
901.27
900.311
900.537
900.978
900.267
900.782
900.296
899.933
900.502
899.893
901.652
900.967
900.243
899.674
899.845
899.295
899.725
899.166
899.524
898.506
899.723
898.757
899.386
898.336
899.437
898.459
899.278
898.125
899.039
897.976
898.86
897.913
898.381
897.587
900.913
900.444
900.32
899.789
902.461
902.05
901.758
901.308
899.31
898.678
899.825
899.251
899.737
899.222
899.153
898.72
901.089
900.669
900.44
900.106
898.8
898.179
898.27
897.736
898.457
897.529
897.937
897.367
898.87
897.885
898.437
897.785
898.044
897.213
897.499
897.005
897.585
896.875
897.113
896.691
899.522
899.972
898.594
899.073
899.517
899.997
898.528
899.03
899.519
899.954
898.43
898.882
901.329
903.155
900.178
899.277
898.306
903.503
901.693
900.608
899.723
898.705
902.828
901.053
899.78
898.918
898.199
900.778
901.901
899.893
900.986
900.726
901.793
899.768
900.817
900.586
901.593
899.527
900.506
903.954
904.802
902.038
902.903
900.935
901.828
900.098
901.01
899.143
900.066
903.1
903.584
901.281
901.771
900.047
900.642
899.247
899.985
898.621
899.551
900.314
900.454
899.642
899.587
901.97
902.055
901.158
900.99
898.659
898.854
899.235
899.592
899.127
898.919
898.629
898.368
900.527
900.211
899.964
899.584
898.199
898.258
897.754
897.767
898.041
898.497
897.73
898.473
898.569
899.164
898.142
898.991
897.611
897.945
897.374
898.02
897.249
897.534
897.058
897.619
903.435
904.956
906.388
902.875
904.596
906.033
903.229
904.768
906.233
902.631
904.362
905.861
902.941
904.45
905.937
902.236
904.048
905.648
905.959
907.414
908.992
904.09
905.602
907.216
903.039
904.619
906.262
902.298
903.875
905.463
901.804
903.711
905.455
904.493
906.064
907.851
902.732
904.337
906.131
901.751
903.456
905.306
901.299
903.099
904.966
901.372
903.371
905.288
898.044
898.644
900.334
903.495
898.334
898.981
900.729
903.919
897.916
898.543
900.237
903.427
898.098
898.792
900.556
903.755
897.756
898.42
900.042
903.137
897.689
898.439
900.174
903.335
897.743
898.583
900.442
903.683
897.566
898.51
900.445
903.71
897.38
898.181
899.874
903.006
897.435
898.296
899.842
902.658
897.647
898.361
899.889
902.794
897.735
898.505
899.939
902.591
897.164
898.051
899.879
903.127
897.175
898.116
899.754
902.637
896.943
897.915
899.808
903.039
896.948
897.959
899.647
902.517
898.088
898.618
900.151
903.126
898.482
898.922
900.226
902.823
898.052
898.601
900.112
903.065
898.466
898.93
900.225
902.796
898.005
898.59
900.051
902.918
898.385
898.9
900.199
902.738
897.993
898.626
900.013
902.711
898.308
898.881
900.163
902.631
898.033
898.72
900.042
902.511
899.094
899.454
900.624
902.473
899.784
900.094
901.29
903.02
899.021
899.416
900.595
902.438
899.709
900.059
901.271
903.007
898.884
899.344
900.552
902.407
899.571
899.993
901.236
902.977
898.685
899.234
900.469
902.334
899.384
899.897
901.179
902.934
898.427
899.09
900.37
902.253
899.164
899.786
901.117
902.891
897.929
898.81
900.235
902.191
898.594
899.459
900.913
902.752
898.174
898.951
900.306
902.227
898.878
899.624
901.016
902.819
897.709
898.679
900.169
902.161
898.332
899.305
900.819
902.678
897.498
898.543
900.078
902.087
898.092
899.154
900.72
902.6
908.343
912.27
915.63
918.378
920.506
908.592
912.477
915.829
918.574
920.7
908.312
912.254
915.62
918.37
920.499
908.541
912.442
915.8
918.548
920.676
908.258
912.23
915.605
918.358
920.488
908.365
912.29
915.658
918.411
920.541
908.464
912.394
915.766
918.522
920.653
908.408
912.352
915.735
918.497
920.63
908.224
912.211
915.593
918.349
920.481
908.426
912.503
915.898
918.655
920.785
908.268
912.282
915.664
918.419
920.549
908.488
912.57
915.962
918.717
920.846
908.221
912.212
915.598
918.358
920.491
908.449
912.535
915.934
918.695
920.826
908.162
912.172
915.569
918.335
920.47
908.436
912.54
915.948
918.713
920.846
908.367
912.359
915.729
918.477
920.604
908.656
912.708
916.083
918.828
920.953
908.363
912.369
915.743
918.492
920.62
908.653
912.714
916.091
918.838
920.963
908.368
912.399
915.779
918.531
920.659
908.655
912.73
916.111
918.86
920.986
908.455
912.526
915.913
918.666
920.795
908.705
912.791
916.177
918.927
921.054
908.629
912.715
916.104
918.857
920.984
926.849
927.519
926.54
927.228
926.006
926.768
925.331
926.22
924.667
925.691
923.634
924.824
924.165
925.326
923.105
924.255
922.55
923.597
934.358
942.624
949.609
955.068
958.811
934.228
942.554
949.618
955.113
958.919
934.219
942.55
949.561
955.032
958.779
934.109
942.505
949.575
955.103
958.899
933.955
942.402
949.463
954.958
958.715
933.853
942.362
949.481
955.032
958.838
933.599
942.189
949.319
954.849
958.621
933.528
942.168
949.35
954.933
958.753
933.186
941.92
949.13
954.705
958.497
933.179
941.939
949.189
954.809
958.645
932.295
941.254
948.626
954.3
958.134
932.38