/*--------------------------------*- C++ -*----------------------------------*\
  =========                 |
  \\      /  F ield         | OpenFOAM: The Open Source CFD Toolbox
   \\    /   O peration     | Website:  https://openfoam.org
    \\  /    A nd           | Version:  12
     \\/     M anipulation  |
\*---------------------------------------------------------------------------*/
FoamFile
{
    format      ascii;
    class       volScalarField;
    location    "540";
    object      T;
}
// * * * * * * * * * * * * * * * * * * * * * * * * * * * * * * * * * * * * * //

dimensions      [];

internalField   nonuniform List<scalar> 
4480
(
1.1517e-05
0.000502821
0.035814
0.162729
0.313333
0.446212
0.552758
0.635283
0.698536
0.74702
0.784365
0.813329
0.835955
0.853753
0.867835
0.879022
0.887927
0.895013
0.900625
0.905027
0.908427
0.910982
0.912816
0.914023
0.914678
0.914844
0.914567
0.914053
0.913533
0.913003
0.912464
0.911911
0.91134
0.91075
0.910136
0.909499
0.908832
0.908134
0.907399
0.906627
0.905817
0.904958
0.904048
0.903088
0.902071
0.90099
0.899842
0.898627
0.897333
0.895953
0.894491
0.892941
0.891287
0.889532
0.887666
0.885681
0.88358
0.881354
0.87899
0.87649
0.87384
0.87104
0.868079
0.864958
0.86166
0.858193
0.854536
0.8507
0.846658
0.842427
0.837982
0.833327
0.828453
0.823356
0.818027
0.812461
0.806653
0.800594
0.794278
0.7877
0.780851
0.773726
0.766318
0.758665
0.750776
0.742647
0.734279
0.725675
0.716835
0.707766
0.698473
0.688966
0.679258
0.669363
0.659303
0.649097
0.63878
0.628383
0.617954
0.607548
0.597227
0.587069
0.577155
0.567606
0.55853
0.550067
0.542376
0.535624
0.529994
0.525684
0.522899
0.521848
0.522735
0.525767
0.531119
0.538959
0.5494
0.562513
0.578312
0.596807
0.618223
0.643331
0.673471
0.711952
0.771908
0.859173
0.919919
0.965316
0.95637
0.89169
0.828493
0.732444
0.644962
0.572915
0.505057
0.437969
0.369558
0.297621
0.220681
0.134256
4.69232e-06
0.0113388
0.156879
0.382795
0.57131
0.703811
0.792128
0.850405
0.889173
0.915391
0.933479
0.946224
0.955399
0.962136
0.96716
0.970968
0.973883
0.97613
0.977864
0.9792
0.980221
0.980979
0.981523
0.981882
0.982085
0.982145
0.98208
0.981796
0.981212
0.980358
0.979264
0.97796
0.976475
0.974836
0.973063
0.971182
0.969214
0.967176
0.96508
0.962944
0.960779
0.958594
0.956391
0.954184
0.951975
0.949765
0.947557
0.945352
0.943147
0.940944
0.938737
0.936532
0.934317
0.93209
0.929851
0.927591
0.925313
0.923006
0.920668
0.918299
0.915883
0.913432
0.910926
0.90837
0.90576
0.903096
0.900365
0.897564
0.8947
0.891768
0.888758
0.885674
0.882512
0.879272
0.875944
0.872536
0.869042
0.865456
0.861791
0.858034
0.854183
0.850252
0.846224
0.842121
0.837954
0.833715
0.829409
0.825051
0.820635
0.816179
0.811689
0.807174
0.80265
0.798135
0.79365
0.789211
0.784856
0.780604
0.776494
0.772571
0.768881
0.765471
0.762402
0.759731
0.757539
0.755889
0.754874
0.754567
0.755068
0.756464
0.758849
0.762302
0.766912
0.772748
0.779861
0.788294
0.798058
0.809155
0.821569
0.835303
0.850417
0.867073
0.885465
0.905737
0.927702
0.949553
0.967695
0.979624
0.969254
0.93279
0.894642
0.85159
0.804215
0.752685
0.696007
0.632901
0.561728
0.480699
0.38857
0.286706
0.000764399
0.0693598
0.337731
0.589164
0.753143
0.849076
0.903912
0.935631
0.954508
0.966172
0.973682
0.978739
0.982282
0.984858
0.986784
0.988257
0.9894
0.990294
0.990995
0.991541
0.991963
0.99228
0.99251
0.992665
0.992754
0.992784
0.992761
0.992669
0.992478
0.992188
0.991797
0.991298
0.99069
0.989965
0.989127
0.988169
0.987099
0.985918
0.984632
0.983246
0.981769
0.980207
0.978572
0.97687
0.975108
0.9733
0.971446
0.969558
0.967639
0.965697
0.963738
0.961764
0.959777
0.957779
0.955779
0.953768
0.951756
0.949739
0.947716
0.94569
0.943658
0.941622
0.939576
0.937526
0.935466
0.933395
0.931315
0.929223
0.927114
0.924997
0.922855
0.920702
0.91853
0.91634
0.914125
0.911893
0.909643
0.907367
0.90507
0.902758
0.900417
0.898062
0.895679
0.893286
0.890871
0.888449
0.886025
0.883596
0.881165
0.878748
0.876344
0.873965
0.871626
0.869329
0.867095
0.864941
0.862883
0.860941
0.859144
0.857518
0.856087
0.854885
0.853956
0.853328
0.853051
0.853169
0.853719
0.854754
0.856326
0.858471
0.861235
0.864653
0.868761
0.873575
0.879109
0.885353
0.892299
0.899909
0.908143
0.916954
0.926283
0.93605
0.946115
0.956204
0.965872
0.97442
0.980899
0.984089
0.976603
0.95318
0.928646
0.901437
0.870212
0.833565
0.789802
0.736774
0.671752
0.591508
0.492946
0.374668
0.00913139
0.205092
0.536055
0.755331
0.870047
0.926653
0.95489
0.969603
0.977773
0.982682
0.985888
0.988152
0.989855
0.991184
0.992244
0.993097
0.993788
0.994343
0.994788
0.995138
0.995411
0.995617
0.995766
0.995871
0.995934
0.99596
0.995955
0.995913
0.995829
0.995703
0.995532
0.995312
0.995041
0.994712
0.994317
0.993855
0.99332
0.992704
0.99201
0.991231
0.99037
0.989427
0.988402
0.987302
0.986127
0.984886
0.983581
0.98222
0.980806
0.97935
0.977856
0.976326
0.974771
0.973191
0.971596
0.969988
0.968371
0.966745
0.965119
0.96349
0.961866
0.96024
0.958623
0.957013
0.955407
0.953808
0.952221
0.950638
0.949067
0.9475
0.945939
0.94439
0.942844
0.941307
0.939773
0.938244
0.936721
0.935207
0.933696
0.932185
0.930681
0.929185
0.9277
0.926209
0.924728
0.923255
0.921793
0.920349
0.918923
0.917518
0.916139
0.914796
0.913496
0.912242
0.911054
0.909931
0.908898
0.907959
0.907134
0.906442
0.905904
0.905534
0.905361
0.905405
0.9057
0.906258
0.907119
0.908301
0.909833
0.911735
0.914032
0.916736
0.91986
0.923406
0.927365
0.931722
0.936454
0.941522
0.946877
0.952455
0.958179
0.963933
0.969566
0.974862
0.979538
0.983216
0.9854
0.98537
0.980015
0.96384
0.946255
0.926894
0.904577
0.877792
0.844457
0.801586
0.744944
0.668601
0.564931
0.425457
0.0436732
0.395078
0.713539
0.869498
0.935555
0.963504
0.976106
0.9824
0.985988
0.988365
0.99014
0.991576
0.992774
0.993778
0.994612
0.995294
0.995848
0.99629
0.996635
0.9969
0.9971
0.997247
0.997351
0.997419
0.997461
0.99748
0.99748
0.997457
0.99741
0.997337
0.997238
0.997113
0.996959
0.996774
0.996556
0.996299
0.995999
0.995654
0.995257
0.994808
0.994299
0.993732
0.993102
0.992411
0.991656
0.990841
0.989968
0.989038
0.988054
0.987023
0.985947
0.984831
0.98368
0.982499
0.981295
0.980072
0.978833
0.97758
0.976323
0.975061
0.973799
0.972538
0.971287
0.970044
0.968805
0.967583
0.966372
0.965172
0.96399
0.962822
0.961668
0.960527
0.959406
0.958298
0.957206
0.956128
0.955068
0.95402
0.952982
0.951965
0.950958
0.949964
0.948988
0.948021
0.947068
0.946131
0.945209
0.944302
0.943418
0.942559
0.941727
0.940925
0.940164
0.939444
0.938773
0.938158
0.937611
0.937141
0.936756
0.936473
0.936298
0.936247
0.936337
0.936583
0.936998
0.937603
0.938409
0.939431
0.940685
0.942188
0.943938
0.94595
0.94822
0.950748
0.953522
0.956519
0.959719
0.963084
0.96657
0.970113
0.973641
0.977063
0.980254
0.983059
0.985279
0.986666
0.986873
0.985402
0.981125
0.969647
0.955901
0.940844
0.923683
0.903236
0.877614
0.843651
0.79618
0.726575
0.621022
0.458678
0.122006
0.590102
0.843401
0.934956
0.966752
0.978843
0.98423
0.987164
0.989145
0.990734
0.992134
0.993378
0.994457
0.995373
0.996119
0.996716
0.99718
0.997529
0.997787
0.997967
0.998089
0.998167
0.998214
0.998238
0.998247
0.998248
0.998242
0.998231
0.998202
0.998158
0.998098
0.99802
0.997926
0.997813
0.997679
0.997521
0.997339
0.997127
0.996884
0.996607
0.996293
0.995937
0.995537
0.995095
0.994606
0.994068
0.993484
0.992853
0.992179
0.991459
0.990699
0.989902
0.989071
0.98821
0.987321
0.986411
0.985484
0.984542
0.983587
0.982627
0.981668
0.980705
0.979748
0.978795
0.97785
0.976918
0.975995
0.975087
0.974197
0.973318
0.972457
0.971611
0.970784
0.969975
0.969179
0.968403
0.96764
0.966897
0.966171
0.965457
0.964759
0.96408
0.963416
0.962769
0.962129
0.961506
0.9609
0.960311
0.959738
0.959187
0.958662
0.958163
0.957693
0.957256
0.95686
0.956508
0.956208
0.955967
0.955788
0.955679
0.955655
0.955716
0.95588
0.956154
0.956545
0.957068
0.957726
0.958536
0.959501
0.960625
0.96192
0.963377
0.964999
0.966778
0.968704
0.970754
0.972911
0.975139
0.9774
0.979642
0.981804
0.983807
0.985556
0.986929
0.987779
0.987911
0.987066
0.984885
0.980861
0.972765
0.961431
0.948948
0.934829
0.918259
0.897825
0.870716
0.831752
0.770578
0.667039
0.482922
0.242984
0.75328
0.921464
0.966019
0.979499
0.984719
0.987397
0.989196
0.990696
0.9921
0.993443
0.994669
0.995717
0.996571
0.99724
0.997746
0.99811
0.998355
0.998504
0.99858
0.998603
0.998591
0.998559
0.998521
0.998485
0.998456
0.998436
0.998428
0.998414
0.998394
0.998368
0.998332
0.998286
0.998228
0.998158
0.998071
0.997967
0.997843
0.997696
0.997527
0.997331
0.997105
0.99685
0.996563
0.996243
0.995885
0.995492
0.995062
0.994598
0.994096
0.993561
0.992995
0.992398
0.991772
0.991124
0.990454
0.989764
0.989062
0.988349
0.987626
0.986899
0.98617
0.985442
0.984717
0.984001
0.983292
0.982591
0.981903
0.981226
0.980565
0.979917
0.979286
0.978666
0.978066
0.977481
0.976909
0.976353
0.975811
0.975288
0.974781
0.974283
0.973804
0.973344
0.972888
0.972448
0.972022
0.971608
0.971208
0.970825
0.970461
0.970113
0.969787
0.969488
0.969211
0.968968
0.968755
0.968583
0.968452
0.968367
0.968336
0.968361
0.968454
0.968617
0.968856
0.969181
0.969595
0.970105
0.970717
0.971432
0.972258
0.97319
0.974229
0.975372
0.976613
0.977936
0.979324
0.980759
0.982216
0.983656
0.985038
0.986309
0.987401
0.988237
0.98872
0.988724
0.988095
0.986634
0.984069
0.98006
0.973951
0.964598
0.953829
0.94163
0.927422
0.910262
0.887884
0.855779
0.803225
0.704989
0.502138
0.390218
0.867201
0.959551
0.978405
0.984354
0.987129
0.988892
0.990328
0.991703
0.993107
0.994495
0.995731
0.996742
0.997522
0.998095
0.998491
0.998737
0.998856
0.998874
0.998817
0.998711
0.99858
0.998447
0.998324
0.998224
0.998153
0.998114
0.998103
0.998103
0.998109
0.998118
0.998127
0.998134
0.998136
0.998129
0.998112
0.99808
0.998033
0.997971
0.997887
0.997784
0.997657
0.997505
0.997328
0.997123
0.996893
0.996634
0.996344
0.996025
0.99568
0.995305
0.994903
0.994476
0.994026
0.993553
0.993061
0.992553
0.992031
0.991497
0.990956
0.990411
0.989859
0.989309
0.988761
0.988214
0.987675
0.987143
0.986622
0.986107
0.985604
0.985115
0.98464
0.984173
0.983724
0.983284
0.982858
0.982448
0.982048
0.981666
0.981294
0.980933
0.98059
0.980256
0.979935
0.979622
0.979321
0.97903
0.978749
0.978482
0.978233
0.977993
0.977772
0.977572
0.977388
0.977226
0.977093
0.976985
0.976911
0.976868
0.976867
0.976904
0.976993
0.977126
0.977317
0.977568
0.977877
0.978257
0.978701
0.97922
0.979807
0.980469
0.981196
0.981985
0.982831
0.983722
0.98464
0.98557
0.986485
0.987353
0.988143
0.9888
0.989275
0.989495
0.989381
0.988825
0.987702
0.985849
0.983066
0.979111
0.973722
0.966267
0.956735
0.945864
0.933182
0.918075
0.898738
0.87159
0.826642
0.735719
0.518333
0.546797
0.929609
0.974283
0.983028
0.986454
0.988377
0.989798
0.991099
0.992469
0.993939
0.995398
0.99664
0.997588
0.998272
0.998731
0.999003
0.999111
0.999075
0.998928
0.9987
0.998427
0.998142
0.997872
0.997638
0.997454
0.997329
0.997262
0.997249
0.997262
0.997299
0.997352
0.997416
0.997486
0.99756
0.997631
0.997693
0.997746
0.997783
0.997803
0.997808
0.99779
0.997754
0.997694
0.997611
0.997504
0.997372
0.997214
0.997032
0.996826
0.996595
0.99634
0.996061
0.995761
0.995441
0.9951
0.994745
0.994371
0.993986
0.993589
0.993185
0.992776
0.992363
0.991945
0.991529
0.991117
0.990706
0.990303
0.989905
0.989513
0.989133
0.988762
0.988399
0.988048
0.987704
0.987374
0.987054
0.986745
0.986448
0.986161
0.985885
0.985617
0.985365
0.98512
0.984886
0.984657
0.984437
0.984228
0.984027
0.983837
0.983654
0.983487
0.983328
0.983187
0.983057
0.982947
0.982855
0.982784
0.982731
0.982708
0.98271
0.982745
0.98281
0.982911
0.98305
0.983231
0.983453
0.983723
0.984037
0.984397
0.984803
0.985256
0.985746
0.986273
0.986827
0.987399
0.987971
0.988533
0.989055
0.989513
0.989872
0.990091
0.990125
0.989907
0.989366
0.988418
0.986953
0.984841
0.981923
0.978024
0.972955
0.96654
0.958326
0.94844
0.936821
0.923077
0.905665
0.881833
0.84287
0.759852
0.532638
0.693007
0.953758
0.97914
0.985114
0.987631
0.98917
0.990423
0.991682
0.993091
0.994658
0.996198
0.997417
0.998275
0.998843
0.999183
0.999316
0.99926
0.999033
0.998672
0.998223
0.997731
0.997244
0.996798
0.996422
0.996133
0.995938
0.995838
0.995821
0.995854
0.995929
0.996039
0.996175
0.996328
0.99649
0.996655
0.996817
0.996968
0.997106
0.997227
0.997328
0.997409
0.997466
0.997498
0.997506
0.99749
0.997452
0.997387
0.997297
0.997184
0.99705
0.996889
0.996708
0.996508
0.996287
0.99605
0.995799
0.995531
0.995253
0.994963
0.994663
0.994359
0.99405
0.993738
0.993424
0.993112
0.992801
0.992495
0.992194
0.991896
0.991606
0.991319
0.991045
0.990776
0.990517
0.990265
0.990021
0.989788
0.98956
0.989345
0.989134
0.988935
0.988744
0.988559
0.988385
0.988214
0.988052
0.987896
0.987746
0.987602
0.98747
0.987343
0.987226
0.987119
0.987025
0.986942
0.986873
0.986816
0.986777
0.986758
0.986753
0.986774
0.986815
0.986881
0.986976
0.987096
0.987245
0.987423
0.987629
0.987867
0.988131
0.988419
0.988728
0.989053
0.989386
0.989716
0.990029
0.990309
0.990535
0.990684
0.99072
0.990613
0.990312
0.989766
0.98891
0.987675
0.985959
0.983666
0.98066
0.97681
0.971964
0.965973
0.958695
0.94986
0.939038
0.926256
0.910105
0.888416
0.85376
0.778061
0.545732
0.791117
0.966497
0.982245
0.986381
0.988395
0.989721
0.99088
0.992134
0.993606
0.995291
0.996905
0.998074
0.998817
0.999264
0.999477
0.999456
0.999199
0.998729
0.998091
0.997353
0.996579
0.995831
0.995161
0.994608
0.994188
0.993913
0.993777
0.993757
0.993818
0.993947
0.994133
0.994362
0.994621
0.994898
0.995183
0.995467
0.995741
0.996
0.996242
0.996458
0.996651
0.996817
0.996954
0.997062
0.997142
0.997195
0.997221
0.99722
0.997194
0.997144
0.997071
0.996975
0.996862
0.996727
0.996574
0.996405
0.996223
0.99603
0.995823
0.995609
0.995388
0.995161
0.99493
0.994698
0.994464
0.994231
0.994
0.993769
0.993545
0.993322
0.993108
0.992897
0.992692
0.992493
0.992299
0.992115
0.991935
0.991762
0.991596
0.991433
0.991279
0.991135
0.990992
0.990858
0.990731
0.990605
0.990483
0.990367
0.99026
0.990154
0.990059
0.989967
0.989881
0.989806
0.989735
0.989679
0.989631
0.989593
0.989566
0.989556
0.989559
0.989577
0.989608
0.989661
0.989726
0.989813
0.989915
0.990035
0.990171
0.99032
0.990481
0.990647
0.990811
0.99097
0.99111
0.991218
0.99128
0.991272
0.991175
0.990962
0.990597
0.990039
0.98924
0.988144
0.986685
0.984785
0.982354
0.979288
0.975474
0.970787
0.965093
0.958247
0.950059
0.940236
0.928172
0.912911
0.892613
0.860837
0.791127
0.558046
0.865143
0.973589
0.984272
0.987389
0.988961
0.99011
0.991212
0.992482
0.994035
0.995843
0.997533
0.998616
0.999229
0.999559
0.999644
0.999442
0.998931
0.998141
0.997143
0.996029
0.994894
0.993821
0.992878
0.992109
0.991537
0.991171
0.991004
0.990988
0.99109
0.991296
0.991583
0.991934
0.99233
0.992753
0.993189
0.993627
0.994055
0.994465
0.99485
0.995205
0.995528
0.995818
0.996075
0.996294
0.996483
0.996636
0.996757
0.996847
0.996908
0.996942
0.996951
0.996935
0.996897
0.996839
0.996761
0.996667
0.996557
0.996434
0.9963
0.996155
0.996003
0.995844
0.995679
0.99551
0.995341
0.995168
0.994996
0.994824
0.994655
0.994488
0.994324
0.994164
0.994007
0.993854
0.993707
0.993564
0.993427
0.993292
0.993161
0.993037
0.992918
0.992805
0.992693
0.992588
0.992485
0.992388
0.99229
0.992199
0.992112
0.992026
0.991945
0.991869
0.991798
0.99173
0.991671
0.991617
0.991568
0.991528
0.991496
0.991469
0.991452
0.991446
0.99145
0.991462
0.991483
0.991514
0.991551
0.991598
0.991651
0.991706
0.991758
0.991806
0.991842
0.991857
0.99184
0.991782
0.991665
0.991475
0.991183
0.990766
0.990194
0.989428
0.988424
0.987135
0.985504
0.983456
0.980922
0.977811
0.974022
0.969449
0.963969
0.957434
0.949646
0.940307
0.928924
0.914564
0.895206
0.865254
0.799871
0.569888
0.911243
0.977954
0.985663
0.988111
0.989425
0.990407
0.991449
0.992743
0.99438
0.99632
0.99808
0.99905
0.999528
0.999754
0.999706
0.999279
0.998436
0.997228
0.995765
0.994174
0.992591
0.991121
0.989848
0.988828
0.988085
0.987628
0.987439
0.987439
0.987607
0.987917
0.988341
0.988853
0.989425
0.990035
0.990662
0.991289
0.991904
0.992493
0.99305
0.993569
0.994048
0.994483
0.994874
0.995221
0.995526
0.995788
0.996015
0.996203
0.996354
0.996475
0.996565
0.99663
0.996665
0.996679
0.996672
0.996645
0.996601
0.996541
0.996471
0.996385
0.996292
0.996189
0.99608
0.995967
0.995847
0.995727
0.995602
0.995478
0.995354
0.99523
0.995107
0.994987
0.994869
0.994752
0.994639
0.994528
0.99442
0.994316
0.994215
0.994118
0.994022
0.993929
0.993842
0.993756
0.993672
0.993591
0.993513
0.993435
0.993361
0.993287
0.993217
0.993151
0.993086
0.993021
0.992964
0.992909
0.992855
0.992808
0.992764
0.992722
0.992687
0.992657
0.992628
0.992607
0.992588
0.99257
0.992551
0.992536
0.992514
0.992488
0.992452
0.9924
0.992324
0.992222
0.992077
0.991879
0.991613
0.991265
0.990811
0.990226
0.98948
0.988546
0.987376
0.98593
0.984159
0.981994
0.979376
0.976224
0.972454
0.967965
0.962642
0.956336
0.948847
0.939878
0.928936
0.915107
0.89645
0.867607
0.805033
0.581463
0.931719
0.982097
0.986652
0.988628
0.989748
0.990658
0.991622
0.992924
0.994647
0.996724
0.998556
0.999387
0.999731
0.999875
0.999677
0.998961
0.997684
0.995934
0.993881
0.991704
0.989576
0.987634
0.985982
0.984682
0.98376
0.983217
0.983028
0.983065
0.983329
0.983781
0.984385
0.985101
0.985896
0.986736
0.987596
0.988454
0.989289
0.99009
0.990852
0.99156
0.992216
0.992817
0.993362
0.993852
0.994288
0.994673
0.995011
0.995304
0.995554
0.995766
0.995941
0.996084
0.996196
0.996281
0.996342
0.996377
0.996397
0.996397
0.996381
0.996352
0.996309
0.996257
0.996197
0.99613
0.996055
0.995977
0.995895
0.99581
0.995722
0.995635
0.995546
0.995457
0.995367
0.995281
0.995195
0.995108
0.995026
0.994942
0.994863
0.994782
0.994707
0.99463
0.994557
0.994485
0.994417
0.994346
0.994277
0.994211
0.994143
0.994078
0.994011
0.993946
0.993883
0.993821
0.993759
0.993699
0.993638
0.99358
0.993524
0.993468
0.993412
0.993358
0.993302
0.993246
0.993187
0.993126
0.993059
0.992984
0.992901
0.992804
0.992689
0.992548
0.99238
0.992172
0.991916
0.991599
0.991211
0.990728
0.990134
0.989406
0.988518
0.987437
0.986128
0.984555
0.982665
0.980403
0.977717
0.974533
0.970774
0.966347
0.961141
0.955006
0.947745
0.939061
0.928462
0.915061
0.896961
0.868979
0.808402
0.589837
0.944474
0.983605
0.98737
0.98899
0.989966
0.990812
0.991773
0.993029
0.994836
0.997053
0.998959
0.999631
0.999861
0.999942
0.999567
0.99847
0.996625
0.994192
0.991409
0.988526
0.985755
0.983272
0.981193
0.97959
0.978487
0.977878
0.97772
0.977831
0.978234
0.978879
0.979717
0.980693
0.98176
0.98288
0.984017
0.985145
0.98624
0.98729
0.98828
0.989204
0.99006
0.990845
0.99156
0.992206
0.992787
0.993305
0.993766
0.994168
0.994522
0.99483
0.995094
0.995319
0.995508
0.995665
0.995793
0.995893
0.995971
0.996028
0.996066
0.996088
0.996094
0.996088
0.996071
0.996044
0.99601
0.995968
0.995921
0.995869
0.995814
0.995754
0.995693
0.995632
0.995568
0.995503
0.995438
0.995372
0.995306
0.995241
0.995175
0.995109
0.995045
0.994983
0.994921
0.994859
0.994796
0.994734
0.99467
0.994609
0.994544
0.994482
0.994416
0.994351
0.994285
0.994221
0.994152
0.994086
0.994016
0.993945
0.993875
0.9938
0.993725
0.993647
0.993562
0.993474
0.99338
0.993278
0.993165
0.993039
0.992898
0.992735
0.992549
0.992334
0.992081
0.991782
0.991426
0.991006
0.990505
0.989907
0.989194
0.988343
0.987331
0.986128
0.984704
0.983019
0.981028
0.97869
0.975948
0.972735
0.968983
0.964601
0.959482
0.95348
0.946398
0.93794
0.927619
0.914559
0.896907
0.869601
0.810523
0.595701
0.953273
0.984748
0.987942
0.989222
0.990071
0.990876
0.99185
0.993118
0.994946
0.997301
0.999293
0.9998
0.999936
0.999977
0.999376
0.997775
0.995206
0.991926
0.98827
0.984557
0.981051
0.977957
0.975413
0.973495
0.972227
0.971584
0.971425
0.97166
0.972271
0.973185
0.974329
0.975636
0.977044
0.978502
0.979968
0.98141
0.982803
0.98413
0.985378
0.98654
0.987614
0.9886
0.989498
0.990313
0.991047
0.991705
0.992293
0.992817
0.993278
0.993684
0.994041
0.99435
0.994617
0.994846
0.995041
0.995205
0.995341
0.995453
0.995543
0.995613
0.995664
0.995701
0.995725
0.995735
0.995735
0.995729
0.995712
0.995689
0.995662
0.995629
0.995592
0.99555
0.995506
0.99546
0.995411
0.995362
0.995312
0.995258
0.995204
0.995151
0.995094
0.995038
0.994982
0.994928
0.99487
0.99481
0.994751
0.994688
0.994626
0.994561
0.994494
0.994427
0.994355
0.994283
0.994208
0.994131
0.994049
0.993965
0.993878
0.993786
0.99369
0.993584
0.993475
0.993356
0.993224
0.993083
0.992926
0.992753
0.992559
0.992339
0.992087
0.991803
0.991473
0.991091
0.990652
0.990139
0.989539
0.988839
0.98802
0.987061
0.985943
0.984634
0.983109
0.981332
0.979261
0.976855
0.974065
0.970829
0.967079
0.962735
0.957683
0.951785
0.944848
0.936572
0.926477
0.913701
0.896414
0.869653
0.811712
0.599648
0.959614
0.98557
0.98827
0.989345
0.990085
0.990842
0.991835
0.993181
0.994992
0.99747
0.999562
0.999906
0.999975
0.999992
0.999092
0.996843
0.993368
0.989069
0.98439
0.979725
0.975393
0.971628
0.968588
0.966358
0.964954
0.964331
0.964205
0.964635
0.965529
0.966789
0.968318
0.970027
0.97184
0.973692
0.975535
0.97733
0.979053
0.980681
0.982206
0.983625
0.984931
0.986127
0.987217
0.988206
0.989099
0.989902
0.990622
0.991265
0.991838
0.992345
0.992792
0.993187
0.993533
0.993835
0.994098
0.994326
0.994518
0.994683
0.994822
0.994937
0.995034
0.995109
0.995171
0.995218
0.995252
0.995274
0.995286
0.995289
0.995286
0.995274
0.995258
0.995234
0.995208
0.995175
0.995143
0.995105
0.995063
0.99502
0.994976
0.994929
0.994879
0.994829
0.994776
0.994721
0.994665
0.994607
0.994546
0.994484
0.994419
0.99435
0.994279
0.994203
0.994126
0.994045
0.993961
0.993871
0.993777
0.993679
0.993573
0.993462
0.993342
0.993214
0.993075
0.992925
0.992762
0.99258
0.992384
0.992164
0.99192
0.991645
0.991335
0.990986
0.990586
0.990133
0.989613
0.989016
0.98833
0.987538
0.986628
0.985578
0.984366
0.982967
0.981355
0.979498
0.977355
0.974894
0.972064
0.968807
0.96506
0.960742
0.955747
0.949936
0.943117
0.934994
0.925094
0.912555
0.895583
0.869267
0.812178
0.602114
0.964298
0.986147
0.988438
0.989361
0.989996
0.990711
0.991722
0.99315
0.995035
0.997553
0.999768
0.999965
0.999993
0.999998
0.998705
0.99563
0.991055
0.985558
0.979708
0.973982
0.96874
0.964247
0.960687
0.958154
0.95666
0.956133
0.956165
0.95688
0.958155
0.959851
0.961848
0.964032
0.966306
0.968599
0.970851
0.973029
0.975097
0.977045
0.978856
0.980534
0.982076
0.983485
0.984768
0.985931
0.986983
0.987931
0.988782
0.989544
0.990225
0.990834
0.991373
0.991851
0.992274
0.992647
0.992974
0.99326
0.993512
0.993726
0.993915
0.994074
0.994212
0.994325
0.994422
0.994501
0.994565
0.994614
0.994653
0.994679
0.994696
0.994704
0.994705
0.994697
0.994686
0.994665
0.994642
0.994614
0.994582
0.994545
0.994505
0.994461
0.994418
0.994366
0.994314
0.994262
0.994204
0.994146
0.994081
0.994015
0.993944
0.99387
0.993791
0.993709
0.99362
0.99353
0.993433
0.99333
0.993222
0.993106
0.992983
0.992848
0.992706
0.992555
0.992387
0.992208
0.992011
0.991795
0.991556
0.991294
0.991002
0.990675
0.990311
0.989902
0.98944
0.988916
0.988325
0.987653
0.98689
0.986022
0.985028
0.983895
0.982601
0.981124
0.979438
0.977509
0.975311
0.972803
0.969938
0.966665
0.962923
0.95863
0.953682
0.947945
0.941226
0.933236
0.923502
0.911179
0.894475
0.868531
0.812086
0.603432
0.967807
0.986543
0.988488
0.989267
0.989809
0.990472
0.991502
0.99302
0.995053
0.997569
0.99991
0.999991
0.999998
0.999999
0.998201
0.994099
0.988215
0.981345
0.974193
0.967302
0.961072
0.955794
0.951687
0.948875
0.947366
0.946952
0.947266
0.948419
0.950228
0.952506
0.955086
0.95783
0.96063
0.963403
0.966092
0.96866
0.971081
0.973342
0.975436
0.977365
0.979133
0.980746
0.982213
0.983543
0.984743
0.98583
0.986805
0.987681
0.988464
0.989165
0.989793
0.990354
0.990849
0.991292
0.991681
0.992025
0.992328
0.992596
0.992827
0.993029
0.993202
0.993353
0.993481
0.993591
0.99368
0.993756
0.993815
0.993862
0.993898
0.993922
0.993937
0.993943
0.993943
0.993934
0.993918
0.993898
0.993871
0.993837
0.9938
0.993759
0.993715
0.993665
0.993611
0.993554
0.993493
0.993431
0.993361
0.993288
0.99321
0.993129
0.993042
0.992948
0.992851
0.992747
0.992636
0.992519
0.992393
0.992259
0.992115
0.991961
0.991796
0.991618
0.991424
0.991215
0.990983
0.990731
0.990455
0.990151
0.989814
0.989438
0.989023
0.988557
0.988037
0.987453
0.986798
0.986056
0.985224
0.984282
0.983217
0.982012
0.980648
0.979103
0.977352
0.97537
0.973122
0.970572
0.967683
0.964399
0.960663
0.956389
0.951488
0.945819
0.939191
0.931318
0.921736
0.909604
0.893145
0.86752
0.811563
0.60385
0.970451
0.986776
0.988424
0.989043
0.989519
0.990126
0.991166
0.992779
0.994972
0.997583
0.999987
1
1
1
0.997561
0.992211
0.984808
0.976403
0.967832
0.959693
0.952399
0.946271
0.941584
0.938525
0.937107
0.936628
0.937444
0.939288
0.941875
0.944937
0.948256
0.951664
0.955048
0.95833
0.96146
0.964412
0.967163
0.969718
0.972067
0.974224
0.976196
0.977993
0.979623
0.9811
0.982434
0.983641
0.984729
0.985707
0.986586
0.987373
0.988079
0.988712
0.989275
0.989778
0.990226
0.990623
0.990975
0.991286
0.99156
0.9918
0.992009
0.992192
0.992349
0.992485
0.992599
0.992694
0.992774
0.99284
0.992891
0.992928
0.992956
0.992972
0.99298
0.992979
0.992968
0.992952
0.992928
0.992898
0.99286
0.99282
0.992773
0.992719
0.992662
0.992602
0.992535
0.992466
0.99239
0.992308
0.99222
0.992129
0.992029
0.991925
0.991815
0.991696
0.991571
0.991436
0.991293
0.991139
0.990976
0.990801
0.990611
0.990407
0.990185
0.989943
0.98968
0.989394
0.989081
0.988737
0.988356
0.987938
0.987472
0.986957
0.986382
0.985741
0.985026
0.984226
0.983332
0.982326
0.981195
0.979929
0.978503
0.9769
0.975095
0.973067
0.970779
0.9682
0.965292
0.961999
0.958269
0.954023
0.949164
0.943554
0.937014
0.929256
0.919816
0.907864
0.891634
0.866285
0.8107
0.60355
0.972416
0.986888
0.988269
0.988738
0.989121
0.989655
0.990701
0.992414
0.994788
0.997596
1
0.999999
0.999998
0.999999
0.996768
0.989934
0.980803
0.970726
0.960654
0.951207
0.942782
0.935709
0.930361
0.927089
0.925923
0.925866
0.92742
0.93018
0.93373
0.937707
0.94184
0.945945
0.949911
0.953673
0.957207
0.96049
0.963529
0.966323
0.968885
0.971226
0.973361
0.975304
0.977067
0.978665
0.98011
0.981418
0.982597
0.983658
0.984615
0.985478
0.986249
0.986943
0.987565
0.988122
0.988616
0.98906
0.989455
0.989805
0.990117
0.99039
0.99063
0.990838
0.991022
0.991181
0.991314
0.991431
0.991525
0.991605
0.991669
0.991717
0.991753
0.991775
0.99179
0.991793
0.991787
0.991771
0.991745
0.991717
0.991677
0.991634
0.991581
0.991526
0.991462
0.991394
0.99132
0.991242
0.991155
0.991063
0.990965
0.990862
0.990751
0.990631
0.990506
0.990373
0.990229
0.990078
0.989915
0.989743
0.989558
0.989358
0.989146
0.988913
0.988663
0.988395
0.988099
0.987779
0.987431
0.987045
0.986627
0.986164
0.985653
0.985091
0.984465
0.983774
0.983005
0.982151
0.981199
0.980138
0.978954
0.977633
0.976155
0.974504
0.972654
0.970586
0.968269
0.965666
0.962746
0.959455
0.955737
0.951518
0.946698
0.941155
0.934701
0.927054
0.917759
0.905985
0.889965
0.864875
0.809562
0.602678
0.973847
0.986901
0.988037
0.988346
0.988608
0.989056
0.990095
0.99191
0.99449
0.997549
1
1
0.999998
0.999997
0.995816
0.98724
0.976187
0.96434
0.952735
0.941965
0.932345
0.924178
0.917978
0.914518
0.913121
0.914048
0.917093
0.921424
0.926357
0.931442
0.936423
0.941177
0.945633
0.949773
0.953601
0.957122
0.960352
0.963311
0.966013
0.968477
0.970723
0.972763
0.974616
0.976294
0.977819
0.979197
0.980441
0.981568
0.982584
0.9835
0.984324
0.985066
0.985732
0.986331
0.986869
0.987345
0.987774
0.988155
0.988495
0.988795
0.989059
0.989291
0.989493
0.98967
0.989822
0.989952
0.990059
0.990148
0.990221
0.990277
0.99032
0.990347
0.990362
0.990366
0.990361
0.990344
0.990317
0.990284
0.990242
0.990192
0.990134
0.990069
0.989998
0.98992
0.989837
0.989748
0.989649
0.989546
0.989435
0.989316
0.989191
0.989057
0.988916
0.988764
0.988603
0.988431
0.988251
0.988055
0.987846
0.987624
0.987385
0.987129
0.986849
0.98655
0.986224
0.985872
0.985487
0.985066
0.984609
0.984105
0.983554
0.982946
0.982275
0.981538
0.980722
0.97982
0.978818
0.977709
0.97648
0.975112
0.973589
0.971901
0.970018
0.96792
0.96558
0.962965
0.960038
0.956751
0.95305
0.948862
0.944094
0.938618
0.932248
0.924717
0.915567
0.903973
0.888164
0.863318
0.808197
0.601335
0.97483
0.986826
0.987732
0.987834
0.987922
0.988316
0.989339
0.991254
0.994063
0.997431
0.999997
0.999997
0.999998
0.999996
0.994691
0.984099
0.970959
0.957313
0.944226
0.932197
0.921357
0.911879
0.904375
0.900571
0.899323
0.902468
0.908163
0.914685
0.921128
0.927172
0.932758
0.937897
0.942611
0.946928
0.95088
0.954492
0.957793
0.960808
0.96356
0.966066
0.968351
0.970435
0.972326
0.974043
0.9756
0.977019
0.978302
0.979462
0.980511
0.98146
0.982317
0.98309
0.983786
0.984413
0.984976
0.985481
0.985933
0.986335
0.986694
0.987014
0.987295
0.987541
0.987759
0.987948
0.988107
0.988248
0.988363
0.988457
0.988535
0.988593
0.988637
0.988666
0.98868
0.988682
0.988673
0.988654
0.988621
0.988581
0.988532
0.988473
0.988407
0.988331
0.98825
0.988161
0.988065
0.987963
0.98785
0.987732
0.987607
0.987472
0.987328
0.987178
0.987017
0.986848
0.986668
0.986477
0.986272
0.986055
0.985824
0.985576
0.985312
0.985027
0.984721
0.984394
0.984036
0.983652
0.983233
0.982778
0.982283
0.981743
0.981154
0.980505
0.979796
0.979016
0.978157
0.977212
0.97617
0.97502
0.973747
0.972345
0.970791
0.969069
0.96716
0.965042
0.962687
0.960066
0.957137
0.953866
0.95019
0.946042
0.941328
0.935927
0.929657
0.922243
0.913249
0.901841
0.886251
0.861635
0.806647
0.599589
0.975415
0.986677
0.987364
0.987224
0.987082
0.987436
0.988415
0.990426
0.993486
0.997239
1
1
0.999998
1
0.993382
0.980486
0.965138
0.949772
0.935392
0.922338
0.910415
0.899454
0.889657
0.882079
0.88518
0.89573
0.90525
0.9126
0.919347
0.925573
0.931323
0.936421
0.94107
0.945302
0.949169
0.952707
0.955939
0.958892
0.961593
0.964057
0.966311
0.968362
0.970239
0.971941
0.973493
0.974904
0.97619
0.977356
0.978413
0.979374
0.980238
0.981022
0.98173
0.982369
0.982944
0.983461
0.983922
0.984338
0.984706
0.985035
0.985325
0.985579
0.985801
0.985993
0.986161
0.9863
0.986418
0.986514
0.98659
0.986648
0.986689
0.986713
0.986723
0.986719
0.986704
0.986673
0.986633
0.986584
0.986523
0.986454
0.986376
0.986287
0.986192
0.986087
0.985977
0.985858