/*--------------------------------*- C++ -*----------------------------------*\
| =========                 |                                                 |
| \\      /  F ield         | OpenFOAM: The Open Source CFD Toolbox           |
|  \\    /   O peration     | Version:  2306                                  |
|   \\  /    A nd           | Website:  www.openfoam.com                      |
|    \\/     M anipulation  |                                                 |
\*---------------------------------------------------------------------------*/
FoamFile
{
    version     2.0;
    format      ascii;
    arch        "LSB;label=32;scalar=64";
    class       volScalarField;
    location    "60";
    object      p;
}
// * * * * * * * * * * * * * * * * * * * * * * * * * * * * * * * * * * * * * //

dimensions      [0 2 -2 0 0 0 0];

internalField   nonuniform List<scalar> 
4480
(
0.0107588
0.0107429
0.0107384
0.0107381
0.01074
0.0107446
0.0107522
0.010763
0.0107768
0.0107939
0.0108141
0.0108372
0.010863
0.0108909
0.0109204
0.0109503
0.0109797
0.0110069
0.0110309
0.0110505
0.0110644
0.0110705
0.0110681
0.0110566
0.0110363
0.0110075
0.0109712
0.0109286
0.0108811
0.01083
0.0107769
0.010723
0.0106696
0.0106177
0.0105679
0.0105209
0.010477
0.0104367
0.0104
0.0103669
0.0103373
0.0103109
0.0102875
0.010267
0.010249
0.0102333
0.0102196
0.0102077
0.0101974
0.0101885
0.0101808
0.0101742
0.0101684
0.0101634
0.010159
0.0101552
0.0101518
0.0101489
0.0101462
0.0101439
0.0101418
0.0101399
0.0101381
0.0101365
0.010135
0.0101337
0.0101324
0.0101311
0.01013
0.0101288
0.0101277
0.0101267
0.0101256
0.0101246
0.0101236
0.0101226
0.0101215
0.0101205
0.0101195
0.0101184
0.0101174
0.0101163
0.0101151
0.010114
0.0101128
0.0101115
0.0101103
0.010109
0.0101076
0.0101062
0.0101047
0.0101032
0.0101015
0.0100999
0.0100981
0.0100962
0.0100942
0.0100921
0.0100899
0.0100875
0.0100849
0.0100821
0.0100791
0.0100759
0.0100723
0.0100684
0.0100641
0.0100594
0.0100542
0.0100488
0.0100437
0.0100404
0.010041
0.0100481
0.0100872
0.0102976
0.0108822
0.0105898
0.00449992
0.00386771
0.00396301
0.0047453
0.0110571
0.0112825
0.0106259
0.010373
0.0103051
0.0102754
0.0102563
0.0102442
0.0102361
0.01023
0.0102248
0.0102202
0.0102159
0.0102118
0.010208
0.0102045
0.010201
0.0101958
0.0107746
0.0107585
0.0107562
0.0107571
0.0107593
0.0107634
0.0107697
0.0107782
0.010789
0.0108021
0.0108177
0.0108355
0.0108553
0.0108767
0.0108992
0.010922
0.010944
0.0109642
0.0109817
0.0109957
0.0110049
0.0110078
0.0110034
0.0109915
0.0109722
0.0109457
0.0109129
0.0108748
0.0108325
0.0107872
0.0107402
0.0106927
0.0106455
0.0105997
0.0105557
0.0105141
0.0104753
0.0104395
0.0104068
0.0103772
0.0103505
0.0103267
0.0103054
0.0102865
0.0102697
0.0102548
0.0102417
0.0102301
0.0102198
0.0102107
0.0102026
0.0101954
0.0101889
0.0101831
0.0101779
0.0101732
0.010169
0.0101651
0.0101615
0.0101582
0.0101552
0.0101524
0.0101497
0.0101473
0.010145
0.0101428
0.0101408
0.0101388
0.010137
0.0101352
0.0101335
0.0101319
0.0101303
0.0101288
0.0101273
0.0101258
0.0101244
0.010123
0.0101216
0.0101202
0.0101188
0.0101174
0.0101159
0.0101145
0.010113
0.0101115
0.0101099
0.0101083
0.0101067
0.010105
0.0101032
0.0101013
0.0100993
0.0100973
0.0100951
0.0100927
0.0100902
0.0100875
0.0100845
0.0100814
0.0100779
0.010074
0.0100697
0.0100649
0.0100595
0.0100534
0.0100463
0.0100382
0.0100286
0.0100174
0.0100039
0.00998737
0.00996524
0.00993103
0.00987455
0.00978655
0.00958366
0.00877714
0.0071241
0.00681923
0.00693704
0.00742314
0.00914826
0.00992305
0.0100879
0.0101481
0.0101824
0.0101974
0.0102028
0.0102049
0.0102057
0.0102056
0.010205
0.0102039
0.0102025
0.0102009
0.0101992
0.0101975
0.0101955
0.0101905
0.0107788
0.01076
0.0107576
0.0107584
0.0107604
0.0107641
0.0107698
0.0107776
0.0107876
0.0107998
0.0108143
0.0108309
0.0108495
0.0108697
0.010891
0.0109126
0.0109334
0.0109524
0.0109689
0.0109822
0.0109908
0.0109931
0.0109883
0.0109762
0.0109566
0.0109301
0.0108974
0.0108596
0.0108177
0.010773
0.0107267
0.01068
0.0106338
0.010589
0.0105463
0.0105059
0.0104684
0.0104338
0.0104023
0.0103739
0.0103483
0.0103255
0.0103051
0.010287
0.010271
0.0102568
0.0102442
0.0102331
0.0102231
0.0102143
0.0102064
0.0101993
0.010193
0.0101872
0.010182
0.0101772
0.0101728
0.0101688
0.0101651
0.0101617
0.0101585
0.0101555
0.0101527
0.0101501
0.0101476
0.0101452
0.010143
0.0101409
0.0101389
0.010137
0.0101351
0.0101334
0.0101316
0.01013
0.0101284
0.0101268
0.0101253
0.0101237
0.0101222
0.0101207
0.0101192
0.0101178
0.0101162
0.0101147
0.0101132
0.0101116
0.0101099
0.0101083
0.0101065
0.0101048
0.0101029
0.0101009
0.0100989
0.0100967
0.0100944
0.0100919
0.0100893
0.0100865
0.0100834
0.01008
0.0100763
0.0100722
0.0100676
0.0100625
0.0100567
0.01005
0.0100423
0.0100332
0.0100224
0.0100093
0.00999277
0.00997127
0.00994153
0.00989715
0.00982611
0.00970496
0.00947388
0.00900616
0.00836865
0.00818536
0.00827659
0.00859591
0.00928655
0.00975742
0.00997592
0.0100812
0.0101362
0.0101652
0.0101808
0.0101895
0.0101945
0.0101972
0.0101984
0.0101987
0.0101983
0.0101974
0.0101962
0.010195
0.0101932
0.0101871
0.0107786
0.0107578
0.010755
0.0107557
0.0107573
0.0107606
0.0107659
0.0107732
0.0107826
0.0107942
0.010808
0.0108241
0.0108421
0.0108619
0.0108828
0.0109041
0.0109246
0.0109433
0.0109598
0.0109731
0.0109814
0.0109832
0.0109779
0.010965
0.0109447
0.0109174
0.010884
0.0108454
0.010803
0.0107579
0.0107115
0.0106649
0.010619
0.0105748
0.0105327
0.0104933
0.0104568
0.0104234
0.0103931
0.0103658
0.0103414
0.0103197
0.0103004
0.0102833
0.0102682
0.0102548
0.010243
0.0102325
0.0102232
0.0102148
0.0102073
0.0102006
0.0101945
0.010189
0.0101839
0.0101792
0.0101749
0.010171
0.0101672
0.0101638
0.0101605
0.0101575
0.0101546
0.0101519
0.0101493
0.0101469
0.0101446
0.0101424
0.0101402
0.0101382
0.0101363
0.0101344
0.0101326
0.0101309
0.0101292
0.0101275
0.0101259
0.0101243
0.0101228
0.0101212
0.0101197
0.0101181
0.0101165
0.010115
0.0101134
0.0101117
0.0101101
0.0101083
0.0101066
0.0101047
0.0101028
0.0101008
0.0100987
0.0100965
0.0100942
0.0100917
0.010089
0.0100861
0.0100829
0.0100795
0.0100757
0.0100715
0.0100668
0.0100616
0.0100556
0.0100487
0.0100408
0.0100314
0.0100201
0.0100063
0.00998893
0.00996629
0.00993564
0.00989236
0.00982896
0.00973298
0.00958076
0.00933651
0.00903905
0.00894469
0.00901535
0.00921566
0.00956049
0.00982119
0.00997378
0.0100627
0.0101159
0.010148
0.0101675
0.0101795
0.0101868
0.0101912
0.0101937
0.0101949
0.0101952
0.0101948
0.010194
0.010193
0.0101913
0.0101843
0.0107759
0.0107537
0.0107506
0.010751
0.0107523
0.0107552
0.0107599
0.0107666
0.0107754
0.0107863
0.0107995
0.010815
0.0108325
0.0108518
0.0108723
0.0108933
0.0109136
0.010932
0.0109483
0.0109615
0.0109693
0.0109705
0.0109643
0.0109503
0.0109288
0.0109003
0.0108657
0.0108261
0.0107828
0.0107372
0.0106906
0.010644
0.0105985
0.0105549
0.0105138
0.0104756
0.0104405
0.0104085
0.0103797
0.010354
0.0103311
0.0103108
0.0102929
0.0102771
0.0102632
0.010251
0.0102402
0.0102306
0.0102221
0.0102144
0.0102076
0.0102013
0.0101956
0.0101904
0.0101856
0.0101811
0.010177
0.0101731
0.0101694
0.010166
0.0101627
0.0101596
0.0101567
0.0101539
0.0101512
0.0101487
0.0101463
0.010144
0.0101418
0.0101396
0.0101376
0.0101356
0.0101337
0.0101319
0.0101301
0.0101284
0.0101267
0.010125
0.0101234
0.0101218
0.0101202
0.0101185
0.0101169
0.0101153
0.0101137
0.010112
0.0101103
0.0101085
0.0101067
0.0101048
0.0101029
0.0101008
0.0100987
0.0100964
0.010094
0.0100915
0.0100888
0.0100858
0.0100826
0.0100791
0.0100753
0.0100711
0.0100664
0.0100611
0.010055
0.0100482
0.0100402
0.0100307
0.0100195
0.0100058
0.00998877
0.00996704
0.0099386
0.00990048
0.0098486
0.00977768
0.00968034
0.00954954
0.0094123
0.00937403
0.00942948
0.00955252
0.00973176
0.00988374
0.00998888
0.0100595
0.0101066
0.0101377
0.0101581
0.0101714
0.0101802
0.0101858
0.0101892
0.0101912
0.0101921
0.0101921
0.0101917
0.010191
0.0101894
0.0101818
0.0107703
0.0107471
0.0107438
0.0107439
0.0107448
0.0107472
0.0107515
0.0107576
0.0107657
0.010776
0.0107887
0.0108036
0.0108207
0.0108397
0.01086
0.0108808
0.0109009
0.0109192
0.0109355
0.0109484
0.0109556
0.0109558
0.0109483
0.0109329
0.0109098
0.0108796
0.0108433
0.0108023
0.0107578
0.0107114
0.0106642
0.0106176
0.0105725
0.0105296
0.0104895
0.0104526
0.0104191
0.0103889
0.0103619
0.0103379
0.0103168
0.0102983
0.0102821
0.0102679
0.0102555
0.0102447
0.0102352
0.0102267
0.0102192
0.0102125
0.0102064
0.0102008
0.0101957
0.0101909
0.0101865
0.0101824
0.0101784
0.0101747
0.0101712
0.0101678
0.0101646
0.0101615
0.0101586
0.0101557
0.010153
0.0101504
0.0101479
0.0101456
0.0101433
0.0101411
0.0101389
0.0101369
0.0101349
0.010133
0.0101311
0.0101293
0.0101275
0.0101258
0.0101241
0.0101224
0.0101207
0.0101191
0.0101174
0.0101157
0.010114
0.0101123
0.0101106
0.0101088
0.0101069
0.010105
0.010103
0.010101
0.0100988
0.0100965
0.0100941
0.0100916
0.0100888
0.0100859
0.0100827
0.0100792
0.0100754
0.0100712
0.0100665
0.0100613
0.0100554
0.0100487
0.0100409
0.0100318
0.0100211
0.0100083
0.00999255
0.00997308
0.00994857
0.00991735
0.00987754
0.0098274
0.00976593
0.00969543
0.00963387
0.00962333
0.00966654
0.00974548
0.00984452
0.00993769
0.0100113
0.0100659
0.0101054
0.0101332
0.0101526
0.010166
0.0101752
0.0101814
0.0101855
0.010188
0.0101894
0.0101898
0.0101896
0.0101892
0.0101877
0.0101798
0.0107615
0.0107378
0.0107342
0.0107341
0.0107347
0.0107366
0.0107403
0.0107459
0.0107535
0.0107633
0.0107754
0.0107899
0.0108067
0.0108256
0.0108458
0.0108666
0.0108865
0.0109051
0.0109213
0.0109338
0.0109401
0.0109391
0.01093
0.0109126
0.0108874
0.0108549
0.0108166
0.0107736
0.0107276
0.0106801
0.0106324
0.0105856
0.0105408
0.0104987
0.0104598
0.0104244
0.0103927
0.0103644
0.0103394
0.0103176
0.0102985
0.0102821
0.0102678
0.0102555
0.0102449
0.0102357
0.0102277
0.0102207
0.0102144
0.0102088
0.0102036
0.0101989
0.0101945
0.0101904
0.0101865
0.0101828
0.0101792
0.0101758
0.0101724
0.0101692
0.0101661
0.0101631
0.0101602
0.0101574
0.0101547
0.010152
0.0101495
0.0101471
0.0101447
0.0101424
0.0101402
0.0101381
0.010136
0.0101341
0.0101321
0.0101302
0.0101284
0.0101266
0.0101248
0.0101231
0.0101214
0.0101197
0.010118
0.0101162
0.0101145
0.0101128
0.010111
0.0101091
0.0101073
0.0101054
0.0101034
0.0101013
0.0100991
0.0100969
0.0100945
0.0100919
0.0100892
0.0100863
0.0100832
0.0100797
0.010076
0.0100719
0.0100674
0.0100624
0.0100568
0.0100504
0.0100431
0.0100347
0.0100249
0.0100134
0.00999962
0.00998312
0.00996316
0.00993902
0.00991011
0.0098764
0.00983903
0.00980184
0.00977536
0.0097771
0.00981004
0.00986399
0.00992505
0.00998465
0.0100362
0.0100775
0.0101093
0.010133
0.0101505
0.0101631
0.0101721
0.0101784
0.0101828
0.0101856
0.0101872
0.010188
0.010188
0.0101878
0.0101864
0.0101785
0.0107496
0.0107258
0.0107221
0.0107217
0.0107219
0.0107234
0.0107266
0.0107317
0.0107387
0.010748
0.0107598
0.010774
0.0107906
0.0108094
0.0108297
0.0108505
0.0108705
0.0108893
0.0109055
0.0109174
0.0109226
0.0109199
0.0109088
0.0108889
0.010861
0.0108258
0.0107848
0.0107396
0.0106918
0.010643
0.0105945
0.0105477
0.0105033
0.0104622
0.0104247
0.010391
0.0103613
0.0103353
0.0103127
0.0102932
0.0102765
0.0102624
0.0102504
0.0102403
0.0102317
0.0102244
0.0102181
0.0102126
0.0102078
0.0102035
0.0101995
0.0101958
0.0101923
0.0101889
0.0101856
0.0101824
0.0101793
0.0101762
0.0101732
0.0101702
0.0101673
0.0101644
0.0101616
0.0101588
0.0101561
0.0101535
0.010151
0.0101485
0.0101461
0.0101438
0.0101415
0.0101393
0.0101372
0.0101352
0.0101332
0.0101312
0.0101293
0.0101275
0.0101257
0.0101239
0.0101221
0.0101203
0.0101186
0.0101168
0.0101151
0.0101133
0.0101115
0.0101097
0.0101078
0.0101059
0.0101039
0.0101018
0.0100997
0.0100974
0.0100951
0.0100926
0.0100899
0.0100871
0.010084
0.0100807
0.0100772
0.0100733
0.010069
0.0100643
0.0100591
0.0100532
0.0100466
0.010039
0.0100304
0.0100205
0.0100089
0.00999557
0.00998006
0.00996224
0.00994218
0.00992052
0.00989881
0.00988021
0.00987054
0.00987745
0.00990257
0.00994096
0.00998291
0.010023
0.0100596
0.0100906
0.0101158
0.0101355
0.0101507
0.0101621
0.0101705
0.0101766
0.010181
0.0101839
0.0101857
0.0101866
0.0101868
0.0101867
0.0101854
0.0101779
0.0107348
0.0107112
0.0107074
0.0107067
0.0107066
0.0107077
0.0107104
0.010715
0.0107216
0.0107304
0.0107418
0.0107558
0.0107724
0.0107912
0.0108117
0.0108326
0.0108526
0.0108716
0.0108878
0.0108988
0.0109026
0.010898
0.0108842
0.0108613
0.0108301
0.0107917
0.0107477
0.0106999
0.01065
0.0105998
0.0105507
0.0105038
0.0104601
0.0104201
0.0103843
0.0103527
0.0103254
0.010302
0.010282
0.0102651
0.0102511
0.0102396
0.0102301
0.0102223
0.010216
0.0102108
0.0102065
0.0102028
0.0101996
0.0101967
0.0101941
0.0101915
0.010189
0.0101865
0.010184
0.0101814
0.0101789
0.0101762
0.0101736
0.0101709
0.0101682
0.0101655
0.0101628
0.0101601
0.0101575
0.0101549
0.0101524
0.0101499
0.0101475
0.0101451
0.0101428
0.0101406
0.0101384
0.0101363
0.0101343
0.0101323
0.0101303
0.0101284
0.0101266
0.0101247
0.0101229
0.0101211
0.0101193
0.0101176
0.0101158
0.010114
0.0101122
0.0101103
0.0101085
0.0101065
0.0101046
0.0101025
0.0101004
0.0100982
0.0100959
0.0100935
0.0100909
0.0100882
0.0100853
0.0100822
0.0100788
0.0100752
0.0100712
0.0100669
0.0100621
0.0100569
0.010051
0.0100445
0.0100372
0.0100289
0.0100196
0.0100092
0.00999767
0.00998507
0.00997177
0.00995854
0.00994676
0.00993859
0.00993722
0.00994605
0.00996568
0.0099936
0.0100244
0.0100534
0.01008
0.0101035
0.0101233
0.0101395
0.0101524
0.0101624
0.0101701
0.0101758
0.01018
0.0101829
0.0101847
0.0101857
0.0101861
0.0101861
0.010185
0.010178
0.0107171
0.0106941
0.0106902
0.0106893
0.0106889
0.0106896
0.0106919
0.0106959
0.010702
0.0107105
0.0107216
0.0107354
0.0107519
0.0107709
0.0107916
0.0108128
0.0108329
0.0108519
0.0108679
0.010878
0.01088
0.0108729
0.0108559
0.0108295
0.0107944
0.0107522
0.0107048
0.0106541
0.0106021
0.0105505
0.0105008
0.0104541
0.0104113
0.0103729
0.0103391
0.01031
0.0102854
0.0102648
0.0102477
0.0102339
0.0102228
0.0102141
0.0102073
0.0102022
0.0101984
0.0101955
0.0101933
0.0101915
0.0101901
0.0101888
0.0101876
0.0101863
0.0101849
0.0101834
0.0101817
0.0101799
0.0101779
0.0101758
0.0101736
0.0101712
0.0101688
0.0101664
0.0101638
0.0101613
0.0101588
0.0101562
0.0101537
0.0101513
0.0101488
0.0101465
0.0101441
0.0101419
0.0101397
0.0101375
0.0101354
0.0101334
0.0101314
0.0101294
0.0101275
0.0101256
0.0101238
0.010122
0.0101202
0.0101184
0.0101166
0.0101148
0.010113
0.0101111
0.0101093
0.0101074
0.0101054
0.0101034
0.0101014
0.0100992
0.010097
0.0100947
0.0100922
0.0100896
0.0100869
0.010084
0.0100809
0.0100776
0.010074
0.0100701
0.0100659
0.0100613
0.0100563
0.0100508
0.0100447
0.0100382
0.010031
0.0100232
0.010015
0.0100065
0.00999821
0.00999076
0.0099852
0.00998292
0.00998564
0.00999488
0.0100107
0.0100316
0.0100548
0.0100771
0.0100973
0.0101153
0.010131
0.0101442
0.0101551
0.0101637
0.0101705
0.0101758
0.0101797
0.0101824
0.0101843
0.0101854
0.0101858
0.0101859
0.010185
0.0101788
0.0106967
0.0106747
0.0106708
0.0106697
0.010669
0.0106693
0.0106711
0.0106746
0.0106803
0.0106883
0.010699
0.0107127
0.0107293
0.0107484
0.0107694
0.0107909
0.0108113
0.0108303
0.0108459
0.0108547
0.0108547
0.0108445
0.0108239
0.0107932
0.0107537
0.0107073
0.0106561
0.0106023
0.0105481
0.0104952
0.0104452
0.0103991
0.0103576
0.0103211
0.0102897
0.0102634
0.0102419
0.0102245
0.0102107
0.0102
0.0101921
0.0101865
0.0101827
0.0101804
0.0101791
0.0101787
0.0101787
0.0101791
0.0101795
0.0101799
0.0101802
0.0101803
0.0101801
0.0101796
0.0101789
0.0101778
0.0101766
0.010175
0.0101733
0.0101714
0.0101693
0.0101671
0.0101648
0.0101624
0.01016
0.0101575
0.0101551
0.0101526
0.0101502
0.0101478
0.0101455
0.0101432
0.010141
0.0101388
0.0101366
0.0101346
0.0101325
0.0101305
0.0101286
0.0101267
0.0101248
0.0101229
0.0101211
0.0101193
0.0101175
0.0101157
0.0101139
0.0101121
0.0101102
0.0101083
0.0101064
0.0101045
0.0101025
0.0101004
0.0100983
0.0100961
0.0100938
0.0100914
0.0100888
0.0100862
0.0100833
0.0100803
0.0100772
0.0100738
0.0100701
0.0100662
0.0100621
0.0100576
0.0100528
0.0100478
0.0100425
0.010037
0.0100314
0.0100261
0.0100215
0.0100179
0.0100162
0.0100173
0.010022
0.0100309
0.010044
0.0100602
0.0100779
0.0100955
0.0101116
0.0101259
0.0101384
0.0101492
0.0101583
0.0101657
0.0101717
0.0101764
0.01018
0.0101826
0.0101844
0.0101855
0.010186
0.0101862
0.0101854
0.0101802
0.0106739
0.0106531
0.0106493
0.010648
0.0106469
0.0106468
0.0106482
0.0106512
0.0106563
0.0106639
0.0106743
0.0106878
0.0107044
0.0107238
0.0107451
0.0107669
0.0107878
0.0108067
0.0108218
0.0108291
0.0108265
0.0108129
0.0107878
0.0107522
0.0107078
0.0106567
0.0106015
0.0105446
0.0104883
0.0104344
0.0103844
0.0103392
0.0102994
0.0102653
0.0102369
0.0102138
0.0101957
0.0101818
0.0101714
0.0101642
0.0101597
0.0101574
0.0101567
0.0101573
0.0101588
0.0101609
0.0101633
0.0101658
0.0101682
0.0101704
0.0101722
0.0101737
0.0101748
0.0101754
0.0101757
0.0101755
0.0101749
0.010174
0.0101728
0.0101713
0.0101696
0.0101676
0.0101656
0.0101634
0.0101611
0.0101588
0.0101564
0.010154
0.0101516
0.0101492
0.0101469
0.0101446
0.0101423
0.0101401
0.0101379
0.0101358
0.0101337
0.0101317
0.0101297
0.0101278
0.0101259
0.010124
0.0101221
0.0101203
0.0101185
0.0101167
0.0101149
0.0101131
0.0101113
0.0101095
0.0101076
0.0101057
0.0101038
0.0101018
0.0100998
0.0100977
0.0100956
0.0100934
0.010091
0.0100886
0.0100861
0.0100835
0.0100807
0.0100778
0.0100748
0.0100716
0.0100682
0.0100647
0.0100611
0.0100574
0.0100537
0.0100501
0.0100467
0.0100438
0.0100417
0.0100408
0.0100415
0.0100444
0.0100499
0.0100583
0.0100693
0.0100823
0.0100963
0.0101102
0.0101233
0.0101351
0.0101454
0.0101543
0.0101619
0.0101682
0.0101734
0.0101775
0.0101808
0.0101832
0.0101849
0.010186
0.0101866
0.0101868
0.0101863
0.0101821
0.0106489
0.0106296
0.0106259
0.0106244
0.010623
0.0106225
0.0106233
0.0106257
0.0106303
0.0106374
0.0106474
0.0106607
0.0106774
0.010697
0.0107187
0.0107409
0.0107622
0.0107812
0.0107955
0.0108011
0.0107956
0.0107778
0.0107478
0.0107067
0.0106567
0.0106006
0.0105412
0.0104812
0.010423
0.0103685
0.010319
0.0102752
0.0102377
0.0102065
0.0101814
0.0101621
0.0101477
0.0101375
0.0101309
0.0101274
0.0101264
0.0101275
0.01013
0.0101336
0.010138
0.0101426
0.0101474
0.0101521
0.0101565
0.0101604
0.0101639
0.0101668
0.0101692
0.010171
0.0101722
0.0101729
0.0101731
0.0101728
0.0101721
0.0101711
0.0101697
0.0101681
0.0101663
0.0101643
0.0101622
0.01016
0.0101577
0.0101554
0.010153
0.0101507
0.0101483
0.010146
0.0101437
0.0101415
0.0101393
0.0101371
0.010135
0.0101329
0.0101309
0.010129
0.010127
0.0101251
0.0101233
0.0101214
0.0101196
0.0101178
0.010116
0.0101143
0.0101125
0.0101107
0.0101089
0.0101071
0.0101052
0.0101034
0.0101015
0.0100996
0.0100976
0.0100956
0.0100935
0.0100913
0.0100891
0.0100869
0.0100845
0.0100821
0.0100796
0.0100771
0.0100745
0.010072
0.0100694
0.0100669
0.0100645
0.0100624
0.0100607
0.0100596
0.0100593
0.0100601
0.0100623
0.0100662
0.010072
0.0100798
0.0100892
0.0100999
0.0101112
0.0101225
0.0101331
0.0101429
0.0101516
0.0101591
0.0101655
0.0101709
0.0101754
0.0101791
0.010182
0.0101842
0.0101858
0.0101869
0.0101876
0.0101879
0.0101876
0.0101845
0.010622
0.0106044
0.0106009
0.0105991
0.0105974
0.0105965
0.0105967
0.0105984
0.0106023
0.0106088
0.0106184
0.0106314
0.0106481
0.010668
0.0106902
0.0107129
0.0107346
0.0107538
0.0107673
0.0107709
0.0107621
0.0107396
0.0107038
0.0106566
0.0106006
0.0105392
0.0104755
0.0104127
0.010353
0.0102983
0.0102499
0.0102082
0.0101736
0.0101458
0.0101246
0.0101093
0.010099
0.0100927
0.01009
0.0100903
0.010093
0.0100975
0.0101033
0.01011
0.0101171
0.0101244
0.0101315
0.0101383
0.0101447
0.0101504
0.0101555
0.0101599
0.0101635
0.0101664
0.0101686
0.0101702
0.0101711
0.0101715
0.0101714
0.0101708
0.0101699
0.0101686
0.0101671
0.0101653
0.0101633
0.0101612
0.010159
0.0101568
0.0101545
0.0101521
0.0101498
0.0101475
0.0101452
0.0101429
0.0101407
0.0101385
0.0101364
0.0101343
0.0101322
0.0101302
0.0101283
0.0101263
0.0101245
0.0101226
0.0101208
0.010119
0.0101173
0.0101155
0.0101138
0.010112
0.0101103
0.0101086
0.0101068
0.0101051
0.0101033
0.0101015
0.0100997
0.0100979
0.0100961
0.0100942
0.0100923
0.0100904
0.0100885
0.0100866
0.0100847
0.0100828
0.0100809
0.0100791
0.0100775
0.010076
0.0100747
0.0100738
0.0100734
0.0100736
0.0100746
0.0100766
0.0100797
0.0100841
0.0100898
0.0100969
0.0101052
0.0101142
0.0101235
0.0101328
0.0101417
0.0101498
0.0101571
0.0101636
0.0101691
0.0101738
0.0101777
0.0101809
0.0101835
0.0101856
0.0101871
0.0101882
0.0101888
0.0101892
0.0101891
0.0101872
0.0105933
0.0105779
0.0105745
0.0105726
0.0105705
0.010569
0.0105685
0.0105695
0.0105726
0.0105783
0.0105873
0.0106
0.0106166
0.0106369
0.0106597
0.010683
0.0107052
0.0107247
0.0107374
0.0107388
0.0107261
0.0106982
0.0106561
0.0106021
0.0105397
0.0104728
0.0104051
0.0103397
0.0102791
0.0102249
0.0101782
0.0101392
0.0101081
0.0100843
0.0100674
0.0100565
0.0100504
0.0100483
0.0100496
0.0100538
0.0100602
0.0100682
0.0100772
0.0100868
0.0100967
0.0101065
0.010116
0.0101249
0.0101332
0.0101407
0.0101473
0.0101531
0.0101579
0.0101619
0.0101651
0.0101675
0.0101692
0.0101702
0.0101707
0.0101706
0.01017
0.0101691
0.0101678
0.0101662
0.0101645
0.0101625
0.0101604
0.0101582
0.0101559
0.0101536
0.0101513
0.010149
0.0101467
0.0101444
0.0101421
0.0101399
0.0101377
0.0101356
0.0101336
0.0101315
0.0101296
0.0101276
0.0101257
0.0101239
0.0101221
0.0101203
0.0101186
0.0101168
0.0101151
0.0101135
0.0101118
0.0101102
0.0101085
0.0101069
0.0101053
0.0101036
0.010102
0.0101004
0.0100988
0.0100972
0.0100957
0.0100941
0.0100926
0.0100911
0.0100897
0.0100884
0.0100872
0.0100861
0.0100852
0.0100846
0.0100843
0.0100843
0.0100849
0.010086
0.0100879
0.0100906
0.0100942
0.0100988
0.0101044
0.0101109
0.0101182
0.0101259
0.0101339
0.0101417
0.0101491
0.010156
0.0101622
0.0101677
0.0101725
0.0101766
0.0101801
0.010183
0.0101853
0.0101872
0.0101886
0.0101897
0.0101904
0.0101909
0.010191
0.0101901
0.0105633
0.0105503
0.0105471
0.0105449
0.0105425
0.0105403
0.010539
0.0105391
0.0105412
0.010546
0.0105543
0.0105665
0.010583
0.0106036
0.0106271
0.0106512
0.0106741
0.0106939
0.0107059
0.0107049
0.010688
0.0106541
0.0106049
0.0105436
0.0104745
0.0104021
0.0103305
0.0102632
0.0102023
0.0101494
0.0101052
0.0100697
0.0100426
0.0100234
0.0100112
0.0100048
0.010003
0.0100052
0.0100107
0.0100188
0.0100288
0.0100402
0.0100523
0.0100649
0.0100774
0.0100896
0.0101013
0.0101122
0.0101223
0.0101314
0.0101395
0.0101466
0.0101526
0.0101577
0.0101618
0.010165
0.0101674
0.010169
0.01017
0.0101704
0.0101702
0.0101696
0.0101686
0.0101672
0.0101656
0.0101638
0.0101618
0.0101597
0.0101575
0.0101552
0.0101529
0.0101505
0.0101482
0.0101459
0.0101436
0.0101414
0.0101392
0.010137
0.0101349
0.0101329
0.0101309
0.010129
0.0101271
0.0101252
0.0101234
0.0101216
0.0101199
0.0101182
0.0101166
0.010115
0.0101134
0.0101118
0.0101103
0.0101088
0.0101073
0.0101058
0.0101044
0.010103
0.0101016
0.0101003
0.010099
0.0100978
0.0100967
0.0100957
0.0100947
0.0100939
0.0100933
0.0100928
0.0100926
0.0100927
0.0100931
0.0100939
0.0100952
0.010097
0.0100995
0.0101027
0.0101066
0.0101112
0.0101166
0.0101226
0.010129
0.0101358
0.0101426
0.0101493
0.0101557
0.0101616
0.0101669
0.0101717
0.0101759
0.0101795
0.0101826
0.0101851
0.0101873
0.010189
0.0101904
0.0101914
0.0101922
0.0101927
0.010193
0.0101932
0.0105324
0.010522
0.0105191
0.0105167
0.0105137
0.0105109
0.0105086
0.0105076
0.0105085
0.0105122
0.0105194
0.010531
0.0105473
0.0105682
0.0105925
0.0106177
0.0106415
0.0106619
0.0106733
0.0106698
0.0106482
0.0106077
0.0105507
0.0104814
0.0104054
0.0103276
0.0102528
0.0101841
0.0101238
0.010073
0.0100322
0.0100009
0.00997857
0.0099643
0.00995712
0.00995538
0.00995797
0.00996445
0.00997404
0.00998596
0.00999951
0.0100141
0.0100292
0.0100445
0.0100595
0.0100739
0.0100876
0.0101004
0.0101122
0.0101228
0.0101323
0.0101406
0.0101477
0.0101538
0.0101588
0.0101627
0.0101658
0.010168
0.0101695
0.0101703
0.0101705
0.0101702
0.0101694
0.0101683
0.0101668
0.0101651
0.0101632
0.0101612
0.010159
0.0101567
0.0101544
0.0101521
0.0101498
0.0101475
0.0101452
0.0101429
0.0101407
0.0101385
0.0101364
0.0101343
0.0101323
0.0101303
0.0101284
0.0101266
0.0101248
0.010123
0.0101213
0.0101197
0.0101181
0.0101165
0.010115
0.0101135
0.0101121
0.0101107
0.0101093
0.010108
0.0101068
0.0101056
0.0101045
0.0101034
0.0101024
0.0101015
0.0101008
0.0101001
0.0100996
0.0100993
0.0100991
0.0100992
0.0100995
0.0101002
0.0101012
0.0101026
0.0101044
0.0101068
0.0101096
0.0101131
0.0101171
0.0101217
0.0101268
0.0101323
0.0101382
0.0101442
0.0101501
0.0101559
0.0101615
0.0101666
0.0101712
0.0101754
0.0101791
0.0101823
0.010185
0.0101874
0.0101893
0.0101909
0.0101923
0.0101933
0.0101941
0.0101947
0.0101952
0.0101964
0.0105008
0.0104935
0.0104908
0.0104881
0.0104846
0.0104809
0.0104776
0.0104752
0.0104747
0.010477
0.010483
0.0104936
0.0105095
0.0105307
0.010556
0.0105826
0.0106076
0.0106289
0.01064
0.0106341
0.0106073
0.0105594
0.0104938
0.0104162
0.0103331
0.0102504
0.0101728
0.0101037
0.010045
0.00999734
0.00996067
0.00993429
0.00991719
0.00990824
0.00990616
0.00990917
0.00991619
0.0099269
0.00994044
0.00995599
0.00997285
0.00999047
0.0100083
0.0100261
0.0100433
0.0100598
0.0100754
0.0100899
0.0101031
0.0101151
0.0101258
0.0101353
0.0101434
0.0101503
0.0101561
0.0101608
0.0101645
0.0101672
0.0101691
0.0101703
0.0101709
0.0101708
0.0101703
0.0101693
0.0101681
0.0101665
0.0101647
0.0101627
0.0101605
0.0101583
0.010156
0.0101537
0.0101514
0.010149
0.0101467
0.0101444
0.0101421
0.0101399
0.0101378
0.0101357
0.0101337
0.0101317
0.0101298
0.0101279
0.0101262
0.0101244
0.0101228
0.0101211
0.0101196
0.0101181
0.0101166
0.0101152
0.0101139
0.0101126
0.0101114
0.0101103
0.0101092
0.0101082
0.0101073
0.0101065
0.0101058
0.0101052
0.0101047
0.0101044
0.0101043
0.0101044
0.0101046
0.0101052
0.010106
0.0101071
0.0101086
0.0101104
0.0101127
0.0101154
0.0101185
0.0101221
0.0101262
0.0101307
0.0101355
0.0101406
0.010146
0.0101513
0.0101566
0.0101618
0.0101666
0.0101711
0.0101752
0.0101789
0.0101822
0.010185
0.0101875
0.0101896
0.0101914
0.010193
0.0101942
0.0101953
0.0101962
0.0101968
0.0101975
0.0101996
0.0104689
0.010465
0.0104627
0.0104597
0.0104556
0.010451
0.0104464
0.0104425
0.0104402
0.0104407
0.0104451
0.0104545
0.0104698
0.0104912
0.0105176
0.0105461
0.0105727
0.0105955
0.0106068
0.0105984
0.010566
0.01051
0.0104351
0.0103486
0.0102584
0.0101712
0.0100918
0.0100233
0.00996721
0.00992367
0.00989204
0.00987118
0.00985977
0.00985642
0.00985932
0.00986689
0.00987835
0.00989317
0.00991045
0.00992938
0.00994929
0.00996965
0.00999
0.01001
0.0100292
0.0100475
0.0100647
0.0100807
0.0100953
0.0101085
0.0101203
0.0101307
0.0101397
0.0101474
0.0101539
0.0101592
0.0101634
0.0101667
0.010169
0.0101705
0.0101714
0.0101716
0.0101713
0.0101705
0.0101693
0.0101679
0.0101661
0.0101642
0.0101621
0.0101599
0.0101576
0.0101553
0.0101529
0.0101506
0.0101482
0.0101459
0.0101436
0.0101414
0.0101392
0.0101371
0.0101351
0.0101331
0.0101312
0.0101293
0.0101275
0.0101258
0.0101242
0.0101226
0.0101211
0.0101196
0.0101183
0.010117
0.0101157
0.0101146
0.0101135
0.0101125
0.0101116
0.0101108
0.0101101
0.0101095
0.010109
0.0101087
0.0101085
0.0101086
0.0101088
0.0101092
0.0101099
0.0101108
0.010112
0.0101135
0.0101153
0.0101175
0.01012
0.010123
0.0101263
0.01013
0.010134
0.0101384
0.010143
0.0101478
0.0101527
0.0101575
0.0101623
0.0101669
0.0101712
0.0101752
0.0101789
0.0101822
0.0101851
0.0101877
0.0101899
0.0101919
0.0101936
0.010195
0.0101963
0.0101974
0.0101983
0.010199
0.0101999
0.0102028
0.0104373
0.010437
0.0104352
0.0104318
0.0104272
0.0104216
0.0104155
0.0104098
0.0104055
0.0104038
0.0104062
0.0104139
0.0104282
0.0104497
0.0104775
0.0105083
0.0105373
0.010562
0.0105742
0.0105637
0.0105253
0.0104602
0.0103751
0.0102794
0.0101822
0.0100911
0.0100108
0.00994414
0.00989182
0.00985337
0.00982754
0.00981273
0.00980731
0.00980963
0.0098174
0.00982931
0.00984506
0.00986376
0.00988448
0.00990646
0.00992911
0.00995189
0.0099744
0.00999629
0.0100173
0.0100372
0.0100558
0.010073
0.0100887
0.010103
0.0101157
0.010127
0.0101367
0.0101451
0.0101522
0.0101581
0.0101628
0.0101664
0.0101691
0.0101709
0.010172
0.0101725
0.0101723
0.0101717
0.0101707
0.0101693
0.0101676
0.0101657
0.0101637
0.0101615
0.0101592
0.0101569
0.0101545
0.0101521
0.0101498
0.0101474
0.0101451
0.0101429
0.0101407
0.0101385
0.0101365
0.0101345
0.0101325
0.0101307
0.0101289
0.0101272
0.0101256
0.010124
0.0101226
0.0101212
0.0101199
0.0101186
0.0101175
0.0101164
0.0101155
0.0101146
0.0101139
0.0101133
0.0101127
0.0101124
0.0101121
0.0101121
0.0101122
0.0101125
0.010113
0.0101137
0.0101147
0.0101159
0.0101174
0.0101193
0.0101214
0.0101238
0.0101266
0.0101297
0.0101331
0.0101369
0.0101409
0.0101451
0.0101495
0.010154
0.0101585
0.010163
0.0101673
0.0101715
0.0101754
0.010179
0.0101823
0.0101852
0.0101879
0.0101903
0.0101923
0.0101941
0.0101957
0.0101971
0.0101983
0.0101994
0.0102004
0.0102012
0.0102022
0.0102058
0.0104063
0.01041
0.0104086
0.010405
0.0103998
0.0103931
0.0103855
0.0103778
0.0103711
0.0103667
0.0103665
0.010372
0.0103848
0.0104062
0.0104355
0.0104694
0.0105019
0.0105291
0.0105433
0.010531
0.0104862
0.0104111
0.0103147
0.0102092
0.0101053
0.010011
0.00993103
0.0098674
0.00982002
0.00978759
0.00976821
0.00975984
0.00976052
0.0097682
0.00978072
0.00979696
0.00981669
0.00983891
0.00986271
0.0098874
0.0099124
0.00993727
0.00996161
0.00998512
0.0100076
0.0100287
0.0100485
0.0100668
0.0100835
0.0100986
0.0101121
0.010124
0.0101345
0.0101434
0.010151
0.0101573
0.0101624
0.0101664
0.0101694
0.0101715
0.0101728
0.0101735
0.0101735
0.010173
0.010172
0.0101707
0.0101691
0.0101673
0.0101652
0.0101631
0.0101608
0.0101584
0.010156
0.0101536
0.0101512
0.0101489
0.0101465
0.0101443
0.010142
0.0101399
0.0101378
0.0101358
0.0101339
0.010132
0.0101302
0.0101286
0.010127
0.0101254
0.010124
0.0101227
0.0101214
0.0101203
0.0101192
0.0101183
0.0101174
0.0101167
0.0101161
0.0101156
0.0101153
0.0101151
0.0101151
0.0101153
0.0101156
0.0101162
0.0101169
0.0101179
0.0101192
0.0101207
0.0101224
0.0101245
0.0101268
0.0101295
0.0101324
0.0101356
0.0101391
0.0101429
0.0101468
0.0101509
0.0101551
0.0101593
0.0101635
0.0101677
0.0101717