/*--------------------------------*- C++ -*----------------------------------*\
| =========                 |                                                 |
| \\      /  F ield         | OpenFOAM: The Open Source CFD Toolbox           |
|  \\    /   O peration     | Version:  2306                                  |
|   \\  /    A nd           | Website:  www.openfoam.com                      |
|    \\/     M anipulation  |                                                 |
\*---------------------------------------------------------------------------*/
FoamFile
{
    version     2.0;
    format      ascii;
    arch        "LSB;label=32;scalar=64";
    class       surfaceScalarField;
    location    "60";
    object      phi;
}
// * * * * * * * * * * * * * * * * * * * * * * * * * * * * * * * * * * * * * //

dimensions      [0 3 -1 0 0 0 0];

oriented        oriented;

internalField   nonuniform List<scalar> 
8788
(
-6.97763e-07
6.97763e-07
-1.63301e-06
9.35248e-07
-2.69405e-06
1.06104e-06
-3.83362e-06
1.13957e-06
-5.00179e-06
1.16817e-06
-6.14809e-06
1.1463e-06
-7.22434e-06
1.07625e-06
-8.18426e-06
9.59919e-07
-8.98269e-06
7.98423e-07
-9.57531e-06
5.92623e-07
-9.91889e-06
3.4358e-07
-9.97179e-06
5.28979e-08
-9.69432e-06
-2.77469e-07
-9.05087e-06
-6.43445e-07
-8.0127e-06
-1.03817e-06
-6.56108e-06
-1.45162e-06
-4.69012e-06
-1.87096e-06
-2.40899e-06
-2.28113e-06
2.57931e-07
-2.66692e-06
3.26421e-06
-3.00628e-06
6.53759e-06
-3.27338e-06
9.9935e-06
-3.45591e-06
1.3543e-05
-3.5495e-06
1.70969e-05
-3.55393e-06
2.05703e-05
-3.47336e-06
2.38861e-05
-3.31579e-06
2.69782e-05
-3.09211e-06
2.97932e-05
-2.81503e-06
3.22913e-05
-2.49809e-06
3.44461e-05
-2.15475e-06
3.62438e-05
-1.7977e-06
3.76821e-05
-1.43838e-06
3.87688e-05
-1.08667e-06
3.95195e-05
-7.50725e-07
3.99565e-05
-4.3695e-07
4.01063e-05
-1.49833e-07
3.99978e-05
1.08557e-07
3.966e-05
3.37765e-07
3.91221e-05
5.37931e-07
3.84123e-05
7.09711e-07
3.75582e-05
8.5411e-07
3.65858e-05
9.72481e-07
3.55193e-05
1.06648e-06
3.43813e-05
1.13798e-06
3.31923e-05
1.18901e-06
3.19706e-05
1.22166e-06
3.07326e-05
1.23805e-06
2.94923e-05
1.24027e-06
2.8262e-05
1.23032e-06
2.70519e-05
1.21009e-06
2.58705e-05
1.18135e-06
2.47248e-05
1.1457e-06
2.36202e-05
1.10462e-06
2.25608e-05
1.05939e-06
2.15497e-05
1.01117e-06
2.05887e-05
9.60942e-07
1.96792e-05
9.09557e-07
1.88214e-05
8.57736e-07
1.80153e-05
8.06075e-07
1.72603e-05
7.55066e-07
1.65552e-05
7.05102e-07
1.58987e-05
6.56493e-07
1.52892e-05
6.09477e-07
1.4725e-05
5.64228e-07
1.42041e-05
5.20868e-07
1.37246e-05
4.79472e-07
1.32846e-05
4.40082e-07
1.28819e-05
4.02707e-07
1.25145e-05
3.67329e-07
1.21806e-05
3.33912e-07
1.18782e-05
3.02403e-07
1.16055e-05
2.72735e-07
1.13606e-05
2.4483e-07
1.1142e-05
2.18603e-07
1.09481e-05
1.93958e-07
1.07773e-05
1.70795e-07
1.06283e-05
1.49011e-07
1.04998e-05
1.28494e-07
1.03907e-05
1.09129e-07
1.02999e-05
9.07994e-08
1.02265e-05
7.3381e-08
1.01697e-05
5.6747e-08
1.0129e-05
4.07656e-08
1.01037e-05
2.53009e-08
1.00934e-05
1.02149e-08
1.00981e-05
-4.63312e-09
1.01175e-05
-1.94067e-08
1.01518e-05
-3.42936e-08
1.02013e-05
-4.94852e-08
1.02665e-05
-6.5193e-08
1.03481e-05
-8.16517e-08
1.04472e-05
-9.91248e-08
1.05651e-05
-1.17912e-07
1.07035e-05
-1.38356e-07
1.08644e-05
-1.60857e-07
1.10502e-05
-1.85881e-07
1.12642e-05
-2.13981e-07
1.151e-05
-2.45816e-07
1.17922e-05
-2.82183e-07
1.21163e-05
-3.24051e-07
1.24889e-05
-3.72609e-07
1.29182e-05
-4.2933e-07
1.34143e-05
-4.96055e-07
1.39894e-05
-5.75097e-07
1.46587e-05
-6.69381e-07
1.54414e-05
-7.82615e-07
1.63609e-05
-9.19507e-07
1.74469e-05
-1.08601e-06
1.87365e-05
-1.28963e-06
2.02762e-05
-1.53969e-06
2.21246e-05
-1.84843e-06
2.43627e-05
-2.23809e-06
2.71302e-05
-2.76746e-06
3.07115e-05
-3.58132e-06
3.56696e-05
-4.95811e-06
4.35002e-05
-7.83059e-06
6.15733e-05
-1.80731e-05
0.000124265
-6.26915e-05
6.36297e-05
-0.000162665
8.02518e-06
-0.000214412
-4.91705e-05
-0.000217755
-0.000113083
-0.000167821
-4.84927e-05
-6.45899e-05
-2.97139e-05
-1.87788e-05
-2.16777e-05
-8.03621e-06
-1.67304e-05
-4.94725e-06
-1.32534e-05
-3.47704e-06
-1.0621e-05
-2.6324e-06
-8.52017e-06
-2.10082e-06
-6.80165e-06
-1.71852e-06
-5.38338e-06
-1.41827e-06
-4.20852e-06
-1.17486e-06
-3.23353e-06
-9.7499e-07
-2.42473e-06
-8.08801e-07
-1.75639e-06
-6.68346e-07
-1.2092e-06
-5.47187e-07
-7.68853e-07
-4.40346e-07
-4.23956e-07
-3.44897e-07
-1.64888e-07
-2.59068e-07
-1.64888e-07
-9.40351e-07
1.63811e-06
-2.04861e-06
2.04351e-06
-3.31074e-06
2.32317e-06
-4.65682e-06
2.48564e-06
-6.02643e-06
2.53779e-06
-7.36268e-06
2.48255e-06
-8.60969e-06
2.32326e-06
-9.71261e-06
2.06284e-06
-1.06177e-05
1.70348e-06
-1.12722e-05
1.2472e-06
-1.16252e-05
6.96562e-07
-1.16277e-05
5.53515e-08
-1.1234e-05
-6.7112e-07
-1.04042e-05
-1.47325e-06
-9.10703e-06
-2.33537e-06
-7.32302e-06
-3.23563e-06
-5.04762e-06
-4.14636e-06
-2.29318e-06
-5.03558e-06
9.10181e-07
-5.87027e-06
4.5001e-06
-6.5962e-06
8.39057e-06
-7.16385e-06
1.24863e-05
-7.55169e-06
1.66859e-05
-7.74909e-06
2.08876e-05
-7.75563e-06
2.49947e-05
-7.5804e-06
2.89194e-05
-7.24052e-06
3.25864e-05
-6.75914e-06
3.59346e-05
-6.16318e-06
3.89178e-05
-5.48125e-06
4.15048e-05
-4.74179e-06
4.36788e-05
-3.97165e-06
4.54355e-05
-3.19507e-06
4.67818e-05
-2.43305e-06
4.77341e-05
-1.70297e-06
4.83157e-05
-1.01853e-06
4.85554e-05
-3.89548e-07
4.84854e-05
1.78519e-07
4.81391e-05
6.84024e-07
4.755e-05
1.1271e-06
4.67509e-05
1.50882e-06
4.57738e-05
1.83115e-06
4.46495e-05
2.09686e-06
4.34066e-05
2.30937e-06
4.20719e-05
2.47261e-06
4.06701e-05
2.59085e-06
3.92232e-05
2.66856e-06
3.7751e-05
2.71025e-06
3.62709e-05
2.7204e-06
3.47978e-05
2.70335e-06
3.33447e-05
2.66322e-06
3.19222e-05
2.60385e-06
3.05391e-05
2.52878e-06
2.92025e-05
2.44123e-06
2.79178e-05
2.34407e-06
2.66892e-05
2.23985e-06
2.55193e-05
2.13078e-06
2.44101e-05
2.01878e-06
2.33624e-05
1.90546e-06
2.23762e-05
1.79219e-06
2.14512e-05
1.68009e-06
2.05863e-05
1.57005e-06
1.978e-05
1.46281e-06
1.90305e-05
1.35892e-06
1.8336e-05
1.25878e-06
1.76941e-05
1.16271e-06
1.71027e-05
1.07089e-06
1.65594e-05
9.83427e-07
1.60617e-05
9.00363e-07
1.56074e-05
8.21675e-07
1.5194e-05
7.47297e-07
1.48193e-05
6.77119e-07
1.4481e-05
6.11004e-07
1.4177e-05
5.48787e-07
1.39054e-05
4.90281e-07
1.3664e-05
4.35284e-07
1.34512e-05
3.83577e-07
1.32653e-05
3.3493e-07
1.31047e-05
2.89102e-07
1.2968e-05
2.45839e-07
1.28539e-05
2.04881e-07
1.27614e-05
1.65956e-07
1.26893e-05
1.28783e-07
1.2637e-05
9.30696e-08
1.26038e-05
5.85139e-08
1.25892e-05
2.48049e-08
1.2593e-05
-8.37544e-09
1.26149e-05
-4.13838e-08
1.26553e-05
-7.4624e-08
1.27143e-05
-1.08526e-07
1.27927e-05
-1.43559e-07
1.28913e-05
-1.80242e-07
1.30113e-05
-2.19161e-07
1.31544e-05
-2.60976e-07
1.33224e-05
-3.06447e-07
1.3518e-05
-3.56453e-07
1.37442e-05
-4.12026e-07
1.40046e-05
-4.74382e-07
1.43037e-05
-5.44976e-07
1.46471e-05
-6.25561e-07
1.50413e-05
-7.18271e-07
1.54945e-05
-8.25731e-07
1.60163e-05
-9.51201e-07
1.6619e-05
-1.09877e-06
1.73176e-05
-1.27361e-06
1.81306e-05
-1.48238e-06
1.90817e-05
-1.73371e-06
2.02012e-05
-2.03904e-06
2.15291e-05
-2.41387e-06
2.31194e-05
-2.88002e-06
2.50496e-05
-3.46988e-06
2.74368e-05
-4.23561e-06
3.04699e-05
-5.27121e-06
3.44665e-05
-6.76402e-06
3.9984e-05
-9.0988e-06
4.80992e-05
-1.30733e-05
6.08738e-05
-2.06052e-05
7.97959e-05
-3.69953e-05
9.04678e-05
-7.33633e-05
5.75745e-05
-0.000129771
8.47393e-06
-0.000165312
-4.16236e-05
-0.000167657
-7.57731e-05
-0.000133672
-6.45133e-05
-7.58497e-05
-4.50003e-05
-3.82917e-05
-3.18482e-05
-2.11883e-05
-2.35425e-05
-1.32529e-05
-1.79605e-05
-9.05904e-06
-1.39765e-05
-6.61647e-06
-1.09993e-05
-5.07794e-06
-8.69106e-06
-4.0268e-06
-6.85133e-06
-3.258e-06
-5.35778e-06
-2.66841e-06
-4.13174e-06
-2.20103e-06
-3.11984e-06
-1.8207e-06
-2.28444e-06
-1.50375e-06
-1.59824e-06
-1.23339e-06
-1.04095e-06
-9.97629e-07
-5.97651e-07
-7.882e-07
-2.58441e-07
-5.98278e-07
-4.23329e-07
-1.08474e-06
2.72285e-06
-2.36904e-06
3.32782e-06
-3.79609e-06
3.75021e-06
-5.30234e-06
3.9919e-06
-6.82372e-06
4.05916e-06
-8.29769e-06
3.95653e-06
-9.66269e-06
3.68825e-06
-1.08579e-05
3.25801e-06
-1.18233e-05
2.66891e-06
-1.25003e-05
1.92417e-06
-1.28319e-05
1.02819e-06
-1.27641e-05
-1.24682e-08
-1.2247e-05
-1.18822e-06
-1.12378e-05
-2.48238e-06
-9.70401e-06
-3.86919e-06
-7.62612e-06
-5.31353e-06
-5.0011e-06
-6.77137e-06
-1.84504e-06
-8.19164e-06
1.80398e-06
-9.5193e-06
5.8694e-06
-1.06616e-05
1.02555e-05
-1.15499e-05
1.48567e-05
-1.21529e-05
1.95621e-05
-1.24545e-05
2.42614e-05
-1.24549e-05
2.885e-05
-1.21691e-05
3.3234e-05
-1.16245e-05
3.73328e-05
-1.08579e-05
4.10811e-05
-9.91154e-06
4.443e-05
-8.83012e-06
4.73461e-05
-7.65791e-06
4.9811e-05
-6.43657e-06
5.18196e-05
-5.2037e-06
5.33784e-05
-3.99184e-06
5.45035e-05
-2.82799e-06
5.52184e-05
-1.73348e-06
5.55527e-05
-7.23875e-07
5.554e-05
1.91274e-07
5.52157e-05
1.00828e-06
5.46159e-05
1.72696e-06
5.3776e-05
2.34864e-06
5.27311e-05
2.87607e-06
5.15146e-05
3.31333e-06
5.01584e-05
3.66561e-06
4.86921e-05
3.9389e-06
4.71432e-05
4.13978e-06
4.55366e-05
4.27518e-06
4.38947e-05
4.35217e-06
4.22373e-05
4.37777e-06
4.05818e-05
4.35883e-06
3.89432e-05
4.30187e-06
3.7334e-05
4.21303e-06
3.57648e-05
4.09799e-06
3.42441e-05
3.96193e-06
3.27787e-05
3.80949e-06
3.13737e-05
3.64482e-06
3.00329e-05
3.47155e-06
2.87589e-05
3.29282e-06
2.7553e-05
3.11131e-06
2.64159e-05
2.9293e-06
2.53474e-05
2.74866e-06
2.43465e-05
2.57092e-06
2.3412e-05
2.39732e-06
2.25421e-05
2.22881e-06
2.17347e-05
2.06613e-06
2.09876e-05
1.9098e-06
2.02983e-05
1.76018e-06
1.96643e-05
1.61748e-06
1.90828e-05
1.48181e-06
1.85514e-05
1.35316e-06
1.80672e-05
1.23144e-06
1.76278e-05
1.11651e-06
1.72307e-05
1.00815e-06
1.68734e-05
9.06109e-07
1.65535e-05
8.10104e-07
1.6269e-05
7.19811e-07
1.60177e-05
6.34883e-07
1.57977e-05
5.54953e-07
1.56072e-05
4.79631e-07
1.54445e-05
4.08513e-07
1.53082e-05
3.41174e-07
1.5197e-05
2.77176e-07
1.51097e-05
2.16061e-07
1.50454e-05
1.57357e-07
1.50033e-05
1.0057e-07
1.4983e-05
4.51891e-08
1.49839e-05
-9.30946e-09
1.5006e-05
-6.3497e-08
1.50494e-05
-1.18015e-07
1.51144e-05
-1.73563e-07
1.52018e-05
-2.309e-07
1.53124e-05
-2.90869e-07
1.54477e-05
-3.54409e-07
1.56093e-05
-4.22588e-07
1.57994e-05
-4.96626e-07
1.60209e-05
-5.77932e-07
1.62771e-05
-6.68156e-07
1.65719e-05
-7.69242e-07
1.69104e-05
-8.83507e-07
1.72986e-05
-1.01374e-06
1.77437e-05
-1.16334e-06
1.82545e-05
-1.33648e-06
1.88416e-05
-1.53834e-06
1.95183e-05
-1.77544e-06
2.03008e-05
-2.05609e-06
2.12094e-05
-2.39103e-06
2.22701e-05
-2.79441e-06
2.35164e-05
-3.28533e-06
2.49928e-05
-3.8903e-06
2.67603e-05
-4.64756e-06
2.89053e-05
-5.61484e-06
3.15537e-05
-6.88402e-06
3.48922e-05
-8.60973e-06
3.91921e-05
-1.10639e-05
4.48261e-05
-1.47329e-05
5.22411e-05
-2.04882e-05
6.15697e-05
-2.99338e-05
7.05481e-05
-4.59737e-05
6.94451e-05
-7.22603e-05
4.60038e-05
-0.00010633
9.4623e-06
-0.00012877
-2.77405e-05
-0.000130454
-5.20541e-05
-0.000109358
-5.31582e-05
-7.47455e-05
-4.38288e-05
-4.76211e-05
-3.4123e-05
-3.08942e-05
-2.64133e-05
-2.09626e-05
-2.05823e-05
-1.489e-05
-1.61701e-05
-1.10287e-05
-1.27831e-05
-8.46489e-06
-1.0131e-05
-6.6789e-06
-8.01286e-06
-5.37618e-06
-6.29341e-06
-4.38785e-06
-4.88134e-06
-3.61311e-06
-3.71356e-06
-2.98848e-06
-2.7454e-06
-2.47191e-06
-1.94444e-06
-2.03434e-06
-1.28661e-06
-1.65546e-06
-7.53556e-07
-1.32125e-06
-3.29966e-07
-1.02187e-06
-7.53295e-07
-1.197e-06
3.91986e-06
-2.60669e-06
4.7375e-06
-4.15852e-06
5.30205e-06
-5.78389e-06
5.61727e-06
-7.41477e-06
5.69004e-06
-8.98438e-06
5.52614e-06
-1.04268e-05
5.13072e-06
-1.1677e-05
4.50812e-06
-1.26703e-05
3.66225e-06
-1.33437e-05
2.59756e-06
-1.3636e-05
1.32046e-06
-1.34891e-05
-1.59373e-07
-1.285e-05
-1.82725e-06
-1.1674e-05
-3.6584e-06
-9.92719e-06
-5.61601e-06
-7.5901e-06
-7.65062e-06
-4.66089e-06
-9.70059e-06
-1.15866e-06
-1.16939e-05
2.86899e-06
-1.3547e-05
7.33094e-06
-1.51236e-05
1.21233e-05
-1.63423e-05
1.71314e-05
-1.7161e-05
2.22361e-05
-1.75592e-05
2.73197e-05
-1.75385e-05
3.22722e-05
-1.71216e-05
3.69956e-05
-1.63479e-05
4.14071e-05
-1.52693e-05
4.54403e-05
-1.39448e-05
4.90462e-05
-1.2436e-05
5.2192e-05
-1.08036e-05
5.48599e-05
-9.10449e-06
5.70457e-05
-7.3895e-06
5.87565e-05
-5.70264e-06
6.00088e-05
-4.08034e-06
6.08267e-05
-2.55138e-06
6.12398e-05
-1.13698e-06
6.1282e-05
1.49104e-07
6.09895e-05
1.30079e-06
6.03992e-05
2.31721e-06
5.95482e-05
3.19971e-06
5.84726e-05
3.95167e-06
5.72075e-05
4.57838e-06
5.57864e-05
5.08668e-06
5.42407e-05
5.48459e-06
5.25996e-05
5.78097e-06
5.08895e-05
5.98519e-06
4.91348e-05
6.1069e-06
4.73569e-05
6.15569e-06
4.55748e-05
6.14096e-06
4.38049e-05
6.07174e-06
4.20614e-05
5.95654e-06
4.03561e-05
5.80326e-06
3.86989e-05
5.61915e-06
3.70976e-05
5.41078e-06
3.55584e-05
5.184e-06
3.4086e-05
4.94399e-06
3.26836e-05
4.69523e-06
3.13533e-05
4.4416e-06
3.00962e-05
4.18638e-06
2.89125e-05
3.93232e-06
2.78018e-05
3.68169e-06
2.67628e-05
3.43631e-06
2.5794e-05
3.19762e-06
2.48934e-05
2.96674e-06
2.40587e-05
2.74449e-06
2.32874e-05
2.53145e-06
2.25769e-05
2.32798e-06
2.19245e-05
2.13429e-06
2.13272e-05
1.9504e-06
2.07824e-05
1.77624e-06
2.02873e-05
1.61164e-06
1.98391e-05
1.45632e-06
1.94353e-05
1.30995e-06
1.90732e-05
1.17215e-06
1.87506e-05
1.04247e-06
1.8465e-05
9.20431e-07
1.82144e-05
8.0553e-07
1.79969e-05
6.9722e-07
1.78104e-05
5.94931e-07
1.76535e-05
4.98068e-07
1.75247e-05
4.06011e-07
1.74227e-05
3.18113e-07
1.73463e-05
2.33703e-07
1.72948e-05
1.52083e-07
1.72675e-05
7.25228e-08
1.72639e-05
-5.73305e-09
1.72839e-05
-8.34811e-08
1.73275e-05
-1.61611e-07
1.7395e-05
-2.4111e-07
1.74872e-05
-3.23049e-07
1.76049e-05
-4.08609e-07
1.77496e-05
-4.99109e-07
1.79231e-05
-5.96037e-07
1.81275e-05
-7.01091e-07
1.83658e-05
-8.16229e-07
1.86414e-05
-9.4373e-07
1.89584e-05
-1.08627e-06
1.9322e-05
-1.24705e-06
1.97381e-05
-1.42987e-06
2.02141e-05
-1.63939e-06
2.07589e-05
-1.88128e-06
2.13832e-05
-2.16259e-06
2.20999e-05
-2.49217e-06
2.29251e-05
-2.88128e-06
2.38786e-05
-3.34451e-06
2.49852e-05
-3.90105e-06
2.62767e-05
-4.57678e-06
2.77938e-05
-5.40746e-06
2.95903e-05
-6.444e-06
3.17367e-05
-7.76124e-06
3.43253e-05
-9.47268e-06
3.7471e-05
-1.17553e-05
4.12968e-05
-1.48898e-05
4.58828e-05
-1.93188e-05
5.11182e-05
-2.57236e-05
5.62875e-05
-3.51031e-05
5.90603e-05
-4.87465e-05
5.4278e-05
-6.74779e-05
3.65709e-05
-8.8623e-05
1.04366e-05
-0.000102636
-1.61672e-05
-0.000103851
-3.45545e-05
-9.09709e-05
-3.95398e-05
-6.97602e-05
-3.66343e-05
-5.05267e-05
-3.11982e-05
-3.63302e-05
-2.56814e-05
-2.64795e-05
-2.08533e-05
-1.97182e-05
-1.68426e-05
-1.50394e-05
-1.35689e-05
-1.17386e-05
-1.09005e-05
-9.34725e-06
-8.71308e-06
-7.56365e-06
-6.90599e-06
-6.19493e-06
-5.40281e-06
-5.11629e-06
-4.14639e-06
-4.2449e-06
-3.09414e-06
-3.52416e-06
-2.21405e-06
-2.91443e-06
-1.48181e-06
-2.3877e-06
-8.7862e-07
-1.92444e-06
-3.89069e-07
-1.51142e-06
-1.14236e-06
-1.27634e-06
5.1962e-06
-2.77244e-06
6.2336e-06
-4.41108e-06
6.94068e-06
-6.11836e-06
7.32455e-06
-7.82246e-06
7.39414e-06
-9.45326e-06
7.15695e-06
-1.09417e-05
6.61915e-06
-1.22193e-05
5.78574e-06
-1.32183e-05
4.66128e-06
-1.38722e-05
3.25139e-06
-1.41162e-05
1.56448e-06
-1.38891e-05
-3.86426e-07
-1.31353e-05
-2.58109e-06
-1.18075e-05
-4.98614e-06
-9.87054e-06
-7.55301e-06
-7.30424e-06
-1.02169e-05
-4.10743e-06
-1.28974e-05
-3.00447e-07
-1.55008e-05
4.05475e-06
-1.79022e-05
8.85513e-06
-1.99239e-05
1.39891e-05
-2.14762e-05
1.93326e-05
-2.25046e-05
2.47577e-05
-2.29843e-05
3.01399e-05
-2.29207e-05
3.53644e-05
-2.2346e-05
4.03306e-05
-2.13141e-05
4.49552e-05
-1.9894e-05
4.91734e-05
-1.8163e-05
5.29382e-05
-1.62009e-05
5.622e-05
-1.40854e-05
5.90041e-05
-1.18886e-05
6.1289e-05
-9.67443e-06
6.30843e-05
-7.49789e-06
6.44081e-05
-5.40416e-06
6.52855e-05
-3.42883e-06
6.57467e-05
-1.59819e-06
6.58256e-05
7.02721e-08
6.55581e-05
1.56825e-06
6.49814e-05
2.89394e-06
6.41326e-05
4.04852e-06
6.30483e-05
5.03596e-06
6.1764e-05
5.86267e-06
6.03136e-05
6.53707e-06
5.87291e-05
7.06913e-06
5.70401e-05
7.46992e-06
5.52741e-05
7.7512e-06
5.34559e-05
7.9251e-06
5.16079e-05
8.00374e-06
4.97498e-05
7.99904e-06
4.7899e-05
7.92247e-06
4.60707e-05
7.78491e-06
4.42774e-05
7.5965e-06
4.253e-05
7.36658e-06
4.08371e-05
7.10365e-06
3.92058e-05
6.81532e-06
3.76414e-05
6.50838e-06
3.61479e-05
6.18872e-06
3.4728e-05
5.86149e-06
3.33834e-05
5.53106e-06
3.21146e-05
5.20112e-06
3.09215e-05
4.87473e-06
2.98034e-05
4.55439e-06
2.8759e-05
4.2421e-06
2.77863e-05
3.93941e-06
2.68833e-05
3.64751e-06
2.60475e-05
3.36723e-06
2.52763e-05
3.09915e-06
2.4567e-05
2.84358e-06
2.39168e-05
2.60065e-06
2.33227e-05
2.37032e-06
2.27819e-05
2.15239e-06
2.22917e-05
1.94656e-06
2.18492e-05
1.75244e-06
2.14518e-05
1.56953e-06
2.1097e-05
1.3973e-06
2.07823e-05
1.23513e-06
2.05054e-05
1.08238e-06
2.02643e-05
9.3833e-07
2.0057e-05
8.0226e-07
1.98817e-05
6.73394e-07
1.97368e-05
5.50923e-07
1.96209e-05
4.34006e-07
1.95328e-05
3.21766e-07
1.94716e-05
2.13288e-07
1.94365e-05
1.07618e-07
1.9427e-05
3.75211e-09
1.94429e-05
-9.93376e-08
1.9484e-05
-2.02792e-07
1.95508e-05
-3.07894e-07
1.96438e-05
-4.16029e-07
1.97639e-05
-5.28721e-07
1.99125e-05
-6.47666e-07
2.00912e-05
-7.74772e-07
2.03023e-05
-9.12206e-07
2.05486e-05
-1.06246e-06
2.08332e-05
-1.22841e-06
2.11604e-05
-1.41344e-06
2.15349e-05
-1.62155e-06
2.19625e-05
-1.8575e-06
2.24502e-05
-2.12705e-06
2.30062e-05
-2.43722e-06
2.36402e-05
-2.79668e-06
2.43643e-05
-3.21622e-06
2.51925e-05
-3.70953e-06
2.61422e-05
-4.29415e-06
2.72341e-05
-4.99298e-06
2.84938e-05
-5.83644e-06
2.99521e-05
-6.86575e-06
3.1646e-05
-8.13791e-06
3.3618e-05
-9.73327e-06
3.59122e-05
-1.17669e-05
3.85618e-05
-1.4405e-05
4.15585e-05
-1.78864e-05
4.47855e-05
-2.25459e-05
4.78862e-05
-2.88243e-05
5.00198e-05
-3.72367e-05
4.94852e-05
-4.82119e-05
4.35536e-05
-6.15463e-05
3.00129e-05
-7.50824e-05
1.1323e-05
-8.39459e-05
-7.70367e-06
-8.48238e-05
-2.1757e-05
-7.69175e-05
-2.79511e-05
-6.35661e-05
-2.84929e-05
-4.99849e-05
-2.62098e-05
-3.86133e-05
-2.28905e-05
-2.97988e-05
-1.94339e-05
-2.31748e-05
-1.62294e-05
-1.82439e-05
-1.34079e-05
-1.45601e-05
-1.09806e-05
-1.17745e-05
-8.91179e-06
-9.63245e-06
-7.1531e-06
-7.95362e-06
-5.65789e-06
-6.61151e-06
-4.38597e-06
-5.51682e-06
-3.30442e-06
-4.60572e-06
-2.38683e-06
-3.83202e-06
-1.61236e-06
-3.16216e-06
-9.64664e-07
-2.57214e-06
-4.30651e-07
-2.04543e-06
-1.57302e-06
-1.32423e-06
6.52043e-06
-2.87395e-06
7.78332e-06
-4.56617e-06
8.63291e-06
-6.32313e-06
9.08151e-06
-8.07014e-06
9.14115e-06
-9.73469e-06
8.8215e-06
-1.12454e-05
8.12985e-06
-1.25314e-05
7.07174e-06
-1.35223e-05
5.65223e-06
-1.41488e-05
3.87782e-06
-1.43431e-05
1.75877e-06
-1.40408e-05
-6.88646e-07
-1.31834e-05
-3.43852e-06
-1.17208e-05
-6.44876e-06
-9.61517e-06
-9.65863e-06
-6.84495e-06
-1.29871e-05
-3.40886e-06
-1.63335e-05
6.70694e-07
-1.95804e-05
5.31498e-06
-2.25464e-05
1.0414e-05
-2.50229e-05
1.58452e-05
-2.69074e-05
2.14739e-05
-2.81333e-05
2.71624e-05
-2.86728e-05
3.27785e-05
-2.85368e-05
3.82027e-05
-2.77703e-05
4.33329e-05
-2.64443e-05
4.80868e-05
-2.46478e-05
5.24025e-05
-2.24787e-05
5.6238e-05
-2.00363e-05
5.95687e-05
-1.74161e-05
6.23855e-05
-1.47053e-05
6.46917e-05
-1.19807e-05
6.65011e-05
-9.30729e-06
6.78351e-05
-6.73816e-06
6.87209e-05
-4.31465e-06
6.91899e-05
-2.06714e-06
6.9276e-05
-1.58467e-08
6.90149e-05
1.82936e-06
6.84432e-05
3.4656e-06
6.75977e-05
4.89402e-06
6.65145e-05
6.11916e-06
6.52286e-05
7.1486e-06
6.37733e-05
7.99233e-06
6.21802e-05
8.66223e-06
6.04786e-05
9.17151e-06
5.86956e-05
9.53423e-06
5.68558e-05
9.76485e-06
5.49816e-05
9.87794e-06
5.30929e-05
9.88779e-06
5.12071e-05
9.80822e-06
4.93397e-05
9.65235e-06
4.75037e-05
9.43248e-06
4.57103e-05
9.15999e-06
4.39687e-05
8.84523e-06
4.22864e-05
8.49759e-06
4.06694e-05
8.12541e-06
3.91221e-05
7.73602e-06
3.76478e-05
7.33584e-06
3.62485e-05
6.93036e-06
3.49253e-05
6.52425e-06
3.36787e-05
6.12142e-06
3.2508e-05
5.72507e-06
3.14123e-05
5.33782e-06
3.039e-05
4.96171e-06
2.94392e-05
4.59831e-06
2.85576e-05
4.24879e-06
2.77428e-05
3.91394e-06
2.69921e-05
3.59427e-06
2.63028e-05
3.29e-06
2.56719e-05
3.00115e-06
2.50968e-05
2.72756e-06
2.45744e-05
2.4689e-06
2.41022e-05
2.22473e-06
2.36772e-05
1.99449e-06
2.3297e-05
1.77752e-06
2.2959e-05
1.57312e-06
2.26609e-05
1.38047e-06
2.24005e-05
1.19875e-06
2.21757e-05
1.02704e-06
2.19847e-05
8.644e-07
2.18258e-05
7.09837e-07
2.16975e-05
5.62311e-07
2.15985e-05
4.2074e-07
2.15278e-05
2.83991e-07
2.14845e-05
1.50881e-07
2.14681e-05
2.01722e-08
2.14782e-05
-1.09413e-07
2.15147e-05
-2.39272e-07
2.15777e-05
-3.70964e-07
2.16679e-05
-5.06183e-07
2.1786e-05
-6.46782e-07
2.19331e-05
-7.94821e-07
2.21109e-05
-9.52603e-07
2.23215e-05
-1.12274e-06
2.25672e-05
-1.30819e-06
2.28512e-05
-1.51241e-06
2.31771e-05
-1.73937e-06
2.35494e-05
-1.99378e-06
2.39731e-05
-2.2812e-06
2.44543e-05
-2.6083e-06
2.50003e-05
-2.98316e-06
2.56192e-05
-3.41565e-06
2.6321e-05
-3.91798e-06
2.71169e-05
-4.50542e-06
2.802e-05
-5.19729e-06
2.90454e-05
-6.0184e-06
3.021e-05
-7.00098e-06
3.15317e-05
-8.18748e-06
3.30283e-05
-9.63449e-06
3.47131e-05
-1.14181e-05
3.65868e-05
-1.36406e-05
3.86209e-05
-1.64391e-05
4.07267e-05
-1.99922e-05
4.27014e-05
-2.45206e-05
4.41451e-05
-3.0268e-05
4.43478e-05
-3.74394e-05
4.21878e-05
-4.6052e-05
3.62525e-05
-5.5611e-05
2.57493e-05
-6.45791e-05
1.21334e-05
-7.033e-05
-1.72844e-06
-7.0962e-05
-1.26133e-05
-6.60327e-05
-1.88086e-05
-5.73708e-05
-2.10513e-05
-4.77422e-05
-2.07885e-05
-3.88762e-05
-1.91952e-05
-3.13921e-05
-1.70292e-05
-2.53408e-05
-1.47246e-05
-2.05485e-05
-1.25048e-05
-1.67798e-05
-1.04692e-05
-1.38102e-05
-8.6499e-06
-1.14517e-05
-7.0465e-06
-9.55701e-06
-5.64429e-06
-8.01372e-06
-4.42396e-06
-6.73715e-06
-3.36611e-06
-5.66356e-06
-2.4533e-06
-4.74483e-06
-1.67076e-06
-3.94471e-06
-1.00665e-06
-3.23625e-06
-4.51787e-07
-2.60029e-06
-2.0248e-06
-1.34519e-06
7.86562e-06
-2.91944e-06
9.35757e-06
-4.63605e-06
1.03495e-05
-6.41485e-06
1.08603e-05
-8.17944e-06
1.09057e-05
-9.85581e-06
1.04979e-05
-1.13711e-05
9.64512e-06
-1.26527e-05
8.35335e-06
-1.36282e-05
6.6277e-06
-1.42255e-05
4.47515e-06
-1.43741e-05
1.90732e-06
-1.40061e-05
-1.05658e-06
-1.30594e-05
-4.38527e-06
-1.148e-05
-8.02814e-06
-9.22653e-06
-1.19121e-05
-6.27459e-06
-1.59391e-05
-2.62216e-06
-1.99859e-05
1.70519e-06
-2.39078e-05
6.61256e-06
-2.74538e-05
1.19833e-05
-3.03936e-05
1.76817e-05
-3.26059e-05
2.35605e-05
-3.4012e-05
2.94701e-05
-3.45825e-05
3.52699e-05
-3.43366e-05
4.08352e-05
-3.33356e-05
4.60628e-05
-3.16719e-05
5.08726e-05
-2.94577e-05
5.5208e-05
-2.68141e-05
5.90334e-05
-2.38618e-05
6.23321e-05
-2.07148e-05
6.51023e-05
-1.74755e-05
6.73546e-05
-1.4233e-05
6.91085e-05
-1.10612e-05
7.03902e-05
-8.01984e-06
7.12302e-05
-5.1547e-06
7.16619e-05
-2.49885e-06
7.17199e-05
-7.38091e-08
7.14394e-05
2.10981e-06
7.08566e-05
4.04841e-06
7.00073e-05
5.74331e-06
6.89266e-05
7.19986e-06
6.76483e-05
8.42696e-06
6.62044e-05
9.43626e-06
6.4625e-05
1.02416e-05
6.29384e-05
1.08582e-05
6.11703e-05
1.13023e-05
5.93445e-05
1.15907e-05
5.74823e-05
1.17401e-05
5.56029e-05
1.17671e-05
5.37235e-05
1.16877e-05
5.18588e-05
1.1517e-05
5.00221e-05
1.12693e-05
4.82242e-05
1.09578e-05
4.64746e-05
1.05948e-05
4.4781e-05
1.01912e-05
4.31495e-05
9.75693e-06
4.15849e-05
9.30059e-06
4.00908e-05
8.82988e-06
3.86698e-05
8.35139e-06
3.73233e-05
7.87076e-06
3.6052e-05
7.39276e-06
3.48557e-05
6.92133e-06
3.37338e-05
6.45969e-06
3.26851e-05
6.01042e-06
3.17079e-05
5.57552e-06
3.08002e-05
5.1565e-06
2.99597e-05
4.75443e-06
2.9184e-05
4.37e-06
2.84704e-05
4.00359e-06
2.78162e-05
3.65532e-06
2.72187e-05
3.32506e-06
2.66751e-05
3.01251e-06
2.61827e-05
2.71717e-06
2.57387e-05
2.43845e-06
2.53406e-05
2.1756e-06
2.49859e-05
1.92781e-06
2.46722e-05
1.69415e-06
2.43974e-05
1.47364e-06
2.41592e-05
1.26522e-06
2.39558e-05
1.06779e-06
2.37855e-05
8.80157e-07
2.36467e-05
7.01108e-07
2.35381e-05
5.29355e-07
2.34585e-05
3.63555e-07
2.34071e-05
2.02303e-07
2.33831e-05
4.4132e-08
2.33862e-05
-1.1248e-07
2.34161e-05
-2.69181e-07
2.34729e-05
-4.27789e-07
2.3557e-05
-5.90283e-07
2.36691e-05
-7.58826e-07
2.381e-05
-9.35807e-07
2.39813e-05
-1.12389e-06
2.41847e-05
-1.32607e-06
2.44222e-05
-1.54574e-06
2.46966e-05
-1.7868e-06
2.5011e-05
-2.05374e-06
2.5369e-05
-2.35181e-06
2.5775e-05
-2.68718e-06
2.62339e-05
-3.06719e-06
2.67513e-05
-3.5006e-06
2.73337e-05
-3.99804e-06
2.79882e-05
-4.57247e-06
2.87226e-05
-5.23985e-06
2.95453e-05
-6.02003e-06
3.04649e-05
-6.93793e-06
3.1489e-05
-8.02507e-06
3.26231e-05
-9.32164e-06
3.38676e-05
-1.0879e-05
3.52122e-05
-1.27626e-05
3.6627e-05
-1.50554e-05
3.80473e-05
-1.78594e-05
3.93495e-05
-2.12944e-05
4.03166e-05
-2.54877e-05
4.05956e-05
-3.0547e-05
3.96591e-05
-3.6503e-05
3.68116e-05
-4.32044e-05
3.13487e-05
-5.01481e-05
2.3057e-05
-5.62874e-05
1.28645e-05
-6.01375e-05
2.50695e-06
-6.06045e-05
-6.06066e-06
-5.74651e-05
-1.17599e-05
-5.16716e-05
-1.47247e-05
-4.47773e-05
-1.56602e-05
-3.79407e-05
-1.52905e-05
-3.17618e-05
-1.41765e-05
-2.64548e-05
-1.27004e-05
-2.20246e-05
-1.11008e-05
-1.83795e-05
-9.51497e-06
-1.5396e-05
-8.01565e-06
-1.2951e-05
-6.63652e-06
-1.09361e-05
-5.38928e-06
-9.26096e-06
-4.274e-06
-7.85243e-06
-3.28523e-06
-6.65234e-06
-2.41546e-06
-5.6146e-06
-1.65726e-06
-4.70292e-06
-1.0044e-06
-3.88911e-06
-4.52491e-07
-3.1522e-06
-2.47729e-06
-1.34334e-06
9.20896e-06
-2.91652e-06
1.09307e-05
-4.63174e-06
1.20647e-05
-6.4081e-06
1.26367e-05
-8.16872e-06
1.26664e-05
-9.83911e-06
1.21683e-05
-1.13457e-05
1.11517e-05
-1.26146e-05
9.62233e-06
-1.35718e-05
7.58489e-06
-1.41428e-05
5.04608e-06
-1.42536e-05
2.01818e-06
-1.38328e-05
-1.47739e-06
-1.28135e-05
-5.40458e-06
-1.11368e-05
-9.70482e-06
-8.75622e-06
-1.42927e-05
-5.64314e-06
-1.90521e-05
-1.79386e-06
-2.38352e-05
2.76222e-06
-2.84638e-05
7.91533e-06
-3.26069e-05
1.35397e-05
-3.6018e-05
1.94851e-05
-3.85513e-05
2.55885e-05
-4.01153e-05
3.16866e-05
-4.06806e-05
3.76285e-05
-4.02785e-05
4.32841e-05
-3.89912e-05
4.85495e-05
-3.69373e-05
5.33487e-05
-3.42568e-05
5.76317e-05
-3.10971e-05
6.13721e-05
-2.76022e-05
6.45628e-05
-2.39055e-05
6.72119e-05
-2.01247e-05
6.93388e-05
-1.63598e-05
7.09706e-05
-1.2693e-05
7.21396e-05
-9.1888e-06
7.28806e-05
-5.89572e-06
7.32297e-05
-2.84794e-06
7.32226e-05
-6.67511e-08
7.28947e-05
2.43776e-06
7.22812e-05
4.66188e-06
7.1417e-05
6.6075e-06
7.03357e-05
8.2812e-06
6.90692e-05
9.69346e-06
6.76476e-05
1.08578e-05
6.60991e-05
1.17901e-05
6.44496e-05
1.25076e-05
6.27232e-05
1.30287e-05
6.09416e-05
1.33723e-05
5.91247e-05
1.3557e-05
5.72903e-05
1.36016e-05
5.54542e-05
1.35237e-05
5.36306e-05
1.33406e-05
5.18316e-05
1.30683e-05
5.00678e-05
1.27216e-05
4.83484e-05
1.23143e-05
4.66807e-05
1.18589e-05
4.50711e-05
1.13666e-05
4.35244e-05
1.08473e-05
4.20444e-05
1.03099e-05
4.06337e-05
9.76204e-06
3.92942e-05
9.21023e-06
3.80269e-05
8.66006e-06
3.6832e-05
8.11622e-06
3.57092e-05
7.58254e-06
3.46575e-05
7.06213e-06
3.36756e-05
6.55743e-06
3.27618e-05
6.07032e-06
3.1914e-05
5.60216e-06
3.11301e-05
5.15388e-06
3.04077e-05
4.72602e-06
2.97442e-05
4.31882e-06
2.91371e-05
3.93222e-06
2.85836e-05
3.56595e-06
2.80813e-05
3.21951e-06
2.76275e-05
2.89227e-06
2.72196e-05
2.58342e-06
2.68554e-05
2.29206e-06
2.65324e-05
2.01717e-06
2.62484e-05
1.75763e-06
2.60014e-05
1.51224e-06
2.57894e-05
1.27975e-06
2.56107e-05
1.05881e-06
2.54638e-05
8.48011e-07
2.53473e-05
6.45889e-07
2.526e-05
4.509e-07
2.52008e-05
2.6143e-07
2.51692e-05
7.57941e-08
2.51645e-05
-1.07761e-07
2.51864e-05
-2.91115e-07
2.52349e-05
-4.76324e-07
2.53103e-05
-6.65623e-07
2.54129e-05
-8.6145e-07
2.55436e-05
-1.06648e-06
2.57034e-05
-1.2837e-06
2.58937e-05
-1.51641e-06
2.61163e-05
-1.76835e-06
2.63733e-05
-2.04379e-06
2.66671e-05
-2.34758e-06
2.70007e-05
-2.68537e-06
2.73772e-05
-3.06372e-06
2.78004e-05
-3.49033e-06
2.82741e-05
-3.97433e-06
2.88027e-05
-4.5266e-06
2.93904e-05
-5.16022e-06
3.00416e-05
-5.89101e-06
3.07598e-05
-6.73822e-06
3.15473e-05
-7.72543e-06
3.24038e-05
-8.88156e-06
3.33243e-05
-1.02421e-05
3.42958e-05
-1.18505e-05
3.52924e-05
-1.37592e-05
3.62667e-05
-1.60297e-05
3.71388e-05
-1.87315e-05
3.77804e-05
-2.1936e-05
3.79961e-05
-2.57034e-05
3.75069e-05
-3.00578e-05
3.59478e-05
-3.49438e-05
3.29058e-05
-4.01625e-05
2.80477e-05
-4.529e-05
2.13832e-05
-4.96229e-05
1.35348e-05
-5.2289e-05
5.58191e-06
-5.26516e-05
-1.29127e-06
-5.05919e-05
-6.35027e-06
-4.66126e-05
-9.51717e-06
-4.16104e-05
-1.111e-05
-3.63478e-05
-1.15526e-05
-3.13192e-05
-1.12307e-05
-2.67767e-05
-1.04456e-05
-2.28097e-05
-9.4114e-06
-1.94137e-05
-8.27078e-06
-1.65366e-05
-7.11335e-06
-1.41085e-05
-5.99248e-06
-1.2057e-05
-4.93795e-06
-1.03155e-05
-3.96489e-06
-8.82549e-06
-3.07977e-06
-7.53746e-06
-2.28438e-06
-6.40999e-06
-1.57851e-06
-5.40879e-06
-9.61746e-07
-4.50587e-06
-4.34595e-07
-3.67935e-06
-2.91189e-06
-1.32169e-06
1.05306e-05
-2.87122e-06
1.24803e-05
-4.56211e-06
1.37556e-05
-6.31451e-06
1.43891e-05
-8.05243e-06
1.44043e-05
-9.70193e-06
1.38178e-05
-1.11895e-05
1.26392e-05
-1.24408e-05
1.08736e-05
-1.33802e-05
8.52425e-06
-1.39306e-05
5.59657e-06
-1.40149e-05
2.10246e-06
-1.35569e-05
-1.93543e-06
-1.24841e-05
-6.47736e-06
-1.07313e-05
-1.14577e-05
-8.24514e-06
-1.67788e-05
-4.99115e-06
-2.23061e-05
-9.62074e-07
-2.78643e-05
3.80644e-06
-3.32324e-05
9.1925e-06
-3.7993e-05
1.50587e-05
-4.18842e-05
2.12372e-05
-4.47299e-05
2.7546e-05
-4.64241e-05
3.38051e-05
-4.69397e-05
3.98518e-05
-4.63252e-05
4.55503e-05
-4.46897e-05
5.07974e-05
-4.21843e-05
5.55221e-05
-3.89816e-05
5.96841e-05
-3.5259e-05
6.3268e-05
-3.11862e-05
6.6279e-05
-2.69165e-05
6.87369e-05
-2.25826e-05
7.06718e-05
-1.82947e-05
7.21197e-05
-1.41409e-05
7.31199e-05
-1.0189e-05
7.37125e-05
-6.48838e-06
7.39369e-05
-3.07227e-06
7.383e-05
4.00768e-08
7.34276e-05
2.84025e-06
7.27642e-05
5.3252e-06
7.18736e-05
7.49812e-06
7.07874e-05
9.3674e-06
6.95353e-05
1.09456e-05
6.81448e-05
1.22483e-05
6.66413e-05
1.32936e-05
6.50481e-05
1.41008e-05
6.33865e-05
1.46903e-05
6.16758e-05
1.50829e-05
5.99337e-05
1.52992e-05
5.81759e-05
1.53594e-05
5.64167e-05
1.5283e-05
5.46685e-05
1.50888e-05
5.29424e-05
1.47943e-05
5.12482e-05
1.44157e-05
4.95943e-05
1.39683e-05
4.79875e-05
1.34656e-05
4.64339e-05
1.29202e-05
4.49382e-05
1.2343e-05
4.35042e-05
1.17439e-05
4.21347e-05
1.11316e-05
4.08316e-05
1.05133e-05
3.95962e-05
9.89548e-06
3.8429e-05
9.28345e-06
3.73299e-05
8.68164e-06
3.62983e-05
8.09369e-06
3.53333e-05
7.52247e-06
3.44334e-05
6.97023e-06
3.35969e-05