/*--------------------------------*- C++ -*----------------------------------*\
  =========                 |
  \\      /  F ield         | OpenFOAM: The Open Source CFD Toolbox
   \\    /   O peration     | Website:  https://openfoam.org
    \\  /    A nd           | Version:  13
     \\/     M anipulation  |
\*---------------------------------------------------------------------------*/
FoamFile
{
    format      ascii;
    class       volScalarField;
    location    "569.831886";
    object      T;
}
// * * * * * * * * * * * * * * * * * * * * * * * * * * * * * * * * * * * * * //

dimensions      [0 0 0 1 0 0 0];

internalField   nonuniform List<scalar> 
5712
(
304.926
304.941
304.965
304.988
305.024
305.047
305.103
305.123
305.086
305.108
305.023
305.046
304.977
304.998
304.942
304.958
305.043
305.074
305.084
305.126
305.141
305.18
305.178
305.228
304.876
304.793
304.892
304.814
304.913
304.834
304.938
304.863
305
304.954
305.042
304.984
304.885
304.933
305.134
305.208
305.175
305.231
305.223
305.286
305.272
305.32
305.05
305.126
305.094
305.153
304.982
305.057
304.698
304.641
304.738
304.678
304.74
304.668
304.787
304.72
304.8
304.704
304.873
304.783
304.931
304.841
304.997
304.905
305.068
305.082
305.132
305.139
305.197
305.214
305.249
305.266
305.019
305.004
304.945
304.944
305.187
305.187
305.236
305.227
305.296
305.309
305.34
305.347
305.081
305.055
305.136
305.096
304.908
304.8
304.87
304.75
304.829
304.718
304.808
304.682
304.974
304.868
304.923
304.804
305.034
304.929
304.964
304.846
304.564
304.44
304.543
304.421
304.602
304.486
304.564
304.448
304.666
304.576
304.601
304.504
304.978
305.129
304.841
304.737
304.625
305.106
304.946
304.782
304.672
304.551
305.149
305.006
304.868
304.738
304.611
304.326
304.268
304.267
304.215
304.383
304.316
304.306
304.25
304.484
304.409
304.373
304.307
305.068
305.004
304.893
304.809
304.732
304.645
304.605
304.519
304.438
304.353
305.12
305.068
304.96
304.873
304.811
304.713
304.664
304.558
304.478
304.369
305.039
304.942
305.11
305.024
305.196
305.164
305.26
305.24
304.951
304.839
304.882
304.763
305.17
305.083
305.209
305.127
305.311
305.292
305.348
305.333
305.013
304.899
305.053
304.942
304.771
304.638
304.55
304.39
304.715
304.575
304.512
304.355
304.822
304.693
304.586
304.429
304.87
304.74
304.635
304.487
304.245
304.216
304.167
304.235
304.219
304.174
304.282
304.246
304.194
304.263
304.245
304.196
304.358
304.312
304.254
304.306
304.28
304.225
304.927
304.839
304.746
304.718
304.641
304.559
304.561
304.494
304.422
304.45
304.392
304.323
304.34
304.306
304.242
304.995
304.896
304.791
304.756
304.653
304.55
304.594
304.502
304.409
304.464
304.392
304.31
304.343
304.3
304.225
305.313
305.345
305.342
305.383
305.235
305.274
305.268
305.317
305.324
305.386
305.332
305.389
305.344
305.399
305.358
305.409
305.404
305.376
305.422
305.389
305.412
305.435
305.416
305.454
305.356
305.398
305.423
305.46
305.449
305.483
305.449
305.485
305.448
305.504
305.438
305.489
305.458
305.514
305.456
305.507
305.467
305.528
305.484
305.539
305.496
305.544
305.527
305.565
305.385
305.413
305.423
305.453
305.304
305.327
305.347
305.373
305.476
305.512
305.443
305.476
305.46
305.489
305.496
305.52
305.389
305.412
305.428
305.446
305.508
305.543
305.542
305.571
305.52
305.567
305.55
305.576
305.493
305.544
305.518
305.55
305.547
305.587
305.577
305.599
305.576
305.609
305.601
305.619
305.443
305.413
305.497
305.466
305.445
305.413
305.501
305.469
305.448
305.419
305.508
305.48
305.356
305.258
305.417
305.465
305.517
305.237
305.333
305.389
305.437
305.492
305.278
305.373
305.441
305.487
305.523
305.363
305.295
305.415
305.349
305.368
305.302
305.424
305.36
305.379
305.317
305.44
305.38
305.208
305.154
305.31
305.255
305.368
305.312
305.413
305.356
305.465
305.408
305.26
305.227
305.357
305.324
305.423
305.384
305.466
305.419
305.497
305.44
305.416
305.402
305.458
305.454
305.328
305.316
305.377
305.379
305.509
305.492
305.473
305.447
305.49
305.495
305.521
305.528
305.416
305.426
305.45
305.463
305.538
305.528
305.566
305.559
305.54
305.508
305.552
305.505
305.507
305.468
305.527
305.474
305.567
305.542
305.575
305.533
305.59
305.568
305.595
305.558
305.202
305.111
305.025
305.235
305.132
305.046
305.215
305.123
305.035
305.251
305.147
305.057
305.235
305.144
305.055
305.276
305.167
305.071
305.083
304.995
304.901
305.182
305.091
304.994
305.237
305.142
305.044
305.277
305.181
305.086
305.303
305.188
305.083
305.169
305.072
304.965
305.263
305.164
305.056
305.315
305.211
305.099
305.338
305.228
305.115
305.33
305.209
305.094
305.524
305.482
305.377
305.187
305.507
305.462
305.353
305.162
305.532
305.488
305.382
305.191
305.521
305.473
305.363
305.171
305.542
305.496
305.394
305.208
305.547
305.495
305.387
305.196
305.544
305.487
305.371
305.176
305.556
305.492
305.371
305.175
305.566
305.511
305.405
305.216
305.563
305.504
305.406
305.236
305.549
305.5
305.404
305.228
305.544
305.491
305.4
305.24
305.58
305.52
305.405
305.209
305.579
305.515
305.412
305.238
305.595
305.529
305.41
305.215
305.594
305.526
305.419
305.245
305.521
305.483
305.387
305.208
305.496
305.464
305.382
305.225
305.523
305.484
305.389
305.212
305.497
305.463
305.382
305.227
305.526
305.485
305.393
305.22
305.503
305.465
305.384
305.23
305.527
305.483
305.395
305.233
305.508
305.467
305.386
305.237
305.525
305.477
305.393
305.244
305.458
305.431
305.356
305.244
305.415
305.391
305.315
305.209
305.463
305.433
305.358
305.246
305.42
305.393
305.317
305.21
305.471
305.438
305.361
305.248
305.429
305.398
305.319
305.212
305.484
305.445
305.366
305.253
305.441
305.404
305.323
305.215
305.501
305.454
305.373
305.258
305.455
305.411
305.326
305.218
305.532
305.472
305.382
305.262
305.49
305.431
305.34
305.227
305.517
305.463
305.377
305.259
305.473
305.421
305.333
305.222
305.546
305.48
305.386
305.264
305.507
305.441
305.346
305.231
305.559
305.489
305.392
305.269
305.522
305.451
305.352
305.236
304.901
304.673
304.479
304.323
304.203
304.887
304.661
304.468
304.312
304.192
304.903
304.674
304.48
304.323
304.203
304.89
304.663
304.469
304.313
304.193
304.906
304.675
304.481
304.324
304.204
304.9
304.672
304.478
304.321
304.201
304.895
304.666
304.472
304.315
304.195
304.898
304.668
304.473
304.316
304.196
304.909
304.676
304.481
304.324
304.204
304.897
304.66
304.464
304.307
304.188
304.906
304.672
304.477
304.32
304.201
304.893
304.656
304.46
304.304
304.184
304.909
304.676
304.481
304.324
304.204
304.896
304.658
304.462
304.305
304.185
304.913
304.679
304.483
304.325
304.205
304.897
304.658
304.461
304.304
304.184
304.9
304.667
304.473
304.317
304.197
304.883
304.647
304.453
304.297
304.178
304.9
304.667
304.473
304.316
304.197
304.883
304.647
304.453
304.297
304.178
304.9
304.665
304.471
304.314
304.194
304.883
304.646
304.452
304.296
304.176
304.895
304.658
304.463
304.306
304.187
304.88
304.643
304.448
304.292
304.173
304.885
304.647
304.452
304.296
304.177
304.015
303.98
304.032
303.996
304.062
304.022
304.1
304.054
304.14
304.085
304.203
304.14
304.171
304.11
304.234
304.174
304.266
304.211
303.646
303.247
302.915
302.658
302.485
303.652
303.25
302.914
302.656
302.48
303.654
303.251
302.917
302.66
302.487
303.659
303.253
302.916
302.657
302.481
303.669
303.259
302.922
302.664
302.49
303.673
303.261
302.921
302.661
302.484
303.689
303.271
302.93
302.67
302.495
303.692
303.272
302.929
302.666
302.489
303.713
303.287
302.941
302.678
302.501
303.712
303.285
302.937
302.673
302.494
303.765
303.324
302.968
302.699
302.52
303.76
303.319
302.962
302.692
302.512
303.739
303.305
302.954
302.688
302.51
303.735
303.3
302.948
302.681
302.502
303.791
303.344
302.983
302.711
302.531
303.787
303.34
302.978
302.705
302.523
303.817
303.364
302.999
302.724
302.542
303.817
303.362
302.996
302.719
302.535
305.411
305.356
305.304
305.367
305.274
305.283
305.287
305.3
305.27
305.287
305.195
305.216
305.155
305.177
305.21
305.229
305.231
305.244
305.234
305.244
305.359
305.368
305.172
305.098
305.077
305.068
305.136
305.194
305.113
305.201
305.04
304.934
305.175
305.149
305.066
305.15
305.116
305.106
305.26
305.258
305.207
305.22
305.245
305.26
305.236
305.209
305.117
305.132
305.171
305.186
305.329
305.345
305.308
305.32
305.29
305.289
305.23
305.166
305.233
305.463
305.515
305.536
305.53
305.498
305.446
305.49
305.508
305.498
305.458
305.225
305.25
305.252
305.23
305.183
305.149
305.171
305.171
305.148
305.101
305.129
305.152
305.153
305.131
305.084
305.12
305.142
305.142
305.119
305.071
305.189
305.212
305.214
305.192
305.145
305.307
305.374
305.409
305.414
305.391
305.232
305.305
305.341
305.347
305.32
305.282
305.333
305.359
305.356
305.318
305.15
305.22
305.253
305.256
305.223
305.041
305.112
305.146
305.148
305.116
305.24
305.277
305.291
305.278
305.235
305.224
305.271
305.292
305.286
305.247
305.138
305.183
305.203
305.195
305.156
305.21
305.243
305.253
305.237
305.194
305.18
305.216
305.229
305.216
305.174
305.165
305.197
305.206
305.19
305.146
305.364
305.421
305.449
305.45
305.422
305.33
305.373
305.392
305.384
305.344
305.269
305.302
305.313
305.298
305.255
305.28
305.311
305.319
305.302
305.257
305.308
305.344
305.356
305.342
305.299
305.32
305.352
305.361
305.345
305.3
305.292
305.32
305.325
305.305
305.259
305.265
305.293
305.298
305.278
305.232
305.172
305.199
305.204
305.184
305.139
305.186
305.211
305.214
305.193
305.147
305.229
305.259
305.266
305.248
305.203
305.243
305.271
305.276
305.257
305.211
305.43
305.483
305.506
305.503
305.473
305.418
305.459
305.476
305.465
305.424
305.393
305.44
305.463
305.458
305.423
305.385
305.422
305.435
305.421
305.378
305.352
305.386
305.396
305.381
305.337
305.36
305.401
305.419
305.409
305.369
305.287
305.316
305.321
305.302
305.256
305.22
305.245
305.248
305.227
305.18
305.292
305.322
305.329
305.311
305.266
305.39
305.357
305.387
305.35
305.464
305.425
305.466
305.431
305.384
305.38
305.349
305.356
305.463
305.461
305.427
305.438
305.311
305.234
305.281
305.207
305.311
305.241
305.275
305.207
305.274
305.306
305.291
305.312
305.251
305.22
305.305
305.268
305.322
305.281
305.381
305.342
305.404
305.366
305.232
305.192
305.256
305.21
305.176
305.128
305.162
305.099
305.138
305.079
305.168
305.093
305.137
305.071
305.181
305.081
305.159
305.07
305.119
305.028
305.065
304.972
305.356
305.335
305.339
305.316
305.453
305.446
305.435
305.428
305.246
305.189
305.262
305.21
305.312
305.292
305.277
305.262
305.409
305.406
305.377
305.379
305.218
305.165
305.181
305.133
305.149
305.039
305.058
304.935
305.16
305.041
305.076
304.946
305.122
305.016
305.034
304.914
305.083
304.978
305.001
304.883
305.159
305.125
305.09
305.036
305.165
305.137
305.08
305.028
305.176
305.161
305.062
305.02
305.36
305.46
305.262
305.156
305.021
305.464
305.369
305.271
305.159
304.998
305.455
305.347
305.222
305.087
304.946
305.068
305.041
304.891
304.838
305.095
305.068
304.901
304.848
305.135
305.112
304.914
304.86
305.461
305.446
305.36
305.342
305.254
305.235
305.126
305.102
304.897
304.839
305.454
305.437
305.335
305.298
305.2
305.154
305.044
304.99
304.835
304.766
305.306
305.242
305.288
305.223
305.441
305.432
305.425
305.419
305.136
305.045
305.157
305.071
305.272
305.198
305.243
305.163
305.406
305.396
305.38
305.367
305.12
305.018
305.088
304.98
304.955
304.839
304.726
304.581
304.987
304.874
304.769
304.633
304.93
304.81
304.689
304.54
304.906
304.778
304.668
304.522
305.028
305.003
304.868
304.862
305.055
305.027
304.874
304.87
305.093
305.053
304.88
304.874
305.413
305.356
305.307
305.253
305.205
305.158
305.077
305.033
304.867
304.863
305.404
305.342
305.247
305.19
305.108
305.065
304.969
304.947
304.824
304.829
305.586
305.588
305.551
305.565
305.531
305.533
305.495
305.51
305.624
305.65
305.591
305.618
305.623
305.647
305.587
305.613
305.592
305.623
305.597
305.62
305.641
305.612
305.533
305.494
305.478
305.44
305.55
305.507
305.564
305.525
305.571
305.531
305.665
305.672
305.633
305.642
305.665
305.674
305.631
305.644
305.663
305.677
305.638
305.656
305.601
305.623
305.565
305.594
305.597
305.598
305.58
305.586
305.534
305.535
305.517
305.52
305.622
305.629
305.637
305.639
305.556
305.568
305.528
305.546
305.492
305.5
305.462
305.476
305.599
305.614
305.572
305.595
305.651
305.668
305.653
305.66
305.664
305.677
305.661
305.666
305.629
305.651
305.64
305.65
305.604
305.631
305.623
305.636
305.678
305.673
305.684
305.675
305.676
305.671
305.683
305.674
305.671
305.666
305.681
305.673
305.603
305.542
305.642
305.667
305.676
305.541
305.6
305.638
305.663
305.67
305.542
305.603
305.642
305.663
305.666
305.652
305.614
305.649
305.609
305.652
305.617
305.651
305.612
305.652
305.62
305.654
305.618
305.541
305.525
305.599
305.58
305.634
305.61
305.654
305.627
305.656
305.623
305.545
305.537
305.604
305.594
305.64
305.623
305.657
305.632
305.653
305.621
305.605
305.604
305.591
305.596
305.543
305.548
305.526
305.539
305.628
305.621
305.639
305.628
305.569
305.579
305.547
305.556
305.503
305.52
305.479
305.494
305.609
305.606
305.59
305.584
305.644
305.624
305.639
305.606
305.654
305.629
305.648
305.613
305.63
305.611
305.627
305.593
305.612
305.591
305.612
305.578
305.567
305.523
305.549
305.498
305.573
305.526
305.554
305.499
305.579
305.527
305.56
305.497
305.493
305.435
305.544
305.486
305.573
305.514
305.586
305.525
305.565
305.49
305.51
305.444
305.562
305.493
305.584
305.512
305.583
305.508
305.556
305.472
305.641
305.561
305.43
305.223
305.614
305.534
305.403
305.195
305.643
305.563
305.433
305.224
305.617
305.538
305.407
305.201
305.644
305.565
305.441
305.239
305.628
305.55
305.425
305.222
305.598
305.523
305.396
305.193
305.575
305.505
305.38
305.181
305.636
305.559
305.438
305.239
305.622
305.545
305.435
305.258
305.641
305.562
305.446
305.257
305.625
305.546
305.439
305.267
305.625
305.55
305.427
305.225
305.616
305.541
305.43
305.252
305.61
305.539
305.417
305.22
305.606
305.534
305.425
305.25
305.65
305.57
305.446
305.248
305.638
305.558
305.446
305.269
305.648
305.568
305.446
305.25
305.635
305.555
305.444
305.269
305.644
305.564
305.447
305.256
305.632
305.552
305.442
305.27
305.636
305.556
305.445
305.265
305.627
305.547
305.44
305.273
305.624
305.544
305.439
305.275
305.609
305.529
305.423
305.295
305.572
305.492
305.384
305.263
305.609
305.529
305.424
305.295
305.571
305.491
305.384
305.263
305.609
305.528
305.422
305.294
305.571
305.49
305.382
305.262
305.607
305.527
305.422
305.294
305.569
305.488
305.381
305.261
305.605
305.524
305.421
305.294
305.567
305.485
305.378
305.259
305.592
305.513
305.411
305.285
305.558
305.477
305.372
305.253
305.6
305.519
305.416
305.29
305.564
305.482
305.376
305.257
305.583
305.505
305.404
305.279
305.548
305.469
305.365
305.247
305.572
305.497
305.398
305.274
305.536
305.46
305.358
305.242
304.923
304.686
304.487
304.328
304.207
304.907
304.674
304.476
304.317
304.197
304.923
304.685
304.487
304.328
304.207
304.907
304.674
304.476
304.318
304.197
304.924
304.686
304.487
304.328
304.207
304.915
304.681
304.483
304.325
304.204
304.905
304.672
304.475
304.317
304.197
304.902
304.671
304.475
304.317
304.197
304.922
304.684
304.486
304.328
304.207
304.909
304.667
304.469
304.31
304.19
304.922
304.682
304.483
304.324
304.204
304.907
304.664
304.466
304.307
304.187
304.918
304.682
304.485
304.326
304.206
304.904
304.663
304.465
304.307
304.187
304.916
304.681
304.484
304.326
304.206
304.899
304.659
304.462
304.305
304.185
304.922
304.681
304.482
304.322
304.202
304.906
304.661
304.462
304.303
304.182
304.921
304.68
304.481
304.321
304.201
304.905
304.66
304.461
304.302
304.182
304.919
304.677
304.478
304.319
304.198
304.903
304.658
304.459
304.301
304.18
304.912
304.668
304.469
304.311
304.19
304.898
304.653
304.455
304.296
304.176
304.9
304.656
304.458
304.3
304.18
304.52
304.479
304.514
304.473
304.501
304.459
304.48
304.439
304.447
304.411
304.361
304.314
304.399
304.359
304.327
304.276
304.296
304.245
304.011
303.503
303.103
302.805
302.611
304.022
303.509
303.103
302.804
302.607
304.005
303.5
303.1
302.803
302.61
304.015
303.504
303.101
302.801
302.605
303.995
303.493
303.095
302.799
302.607
304.005
303.497
303.096
302.797
302.602
303.978
303.481
303.087
302.793
302.601
303.989
303.487
303.089
302.792
302.597
303.955
303.466
303.076
302.785
302.594
303.97
303.474
303.079
302.784
302.591
303.898
303.426
303.047
302.762
302.575
303.908
303.433
303.05
302.762
302.572
303.927
303.447
303.062
302.774
302.585
303.942
303.456
303.066
302.774
302.582
303.871
303.406
303.031
302.75
302.564
303.876
303.409
303.032
302.748
302.56
303.844
303.384
303.015
302.737
302.553
303.846
303.385
303.014
302.734
302.548
305.46
305.408
305.45
305.504
305.585
305.551
305.585
305.547
305.531
305.491
305.531
305.497
304.825
304.836
304.862
304.904
304.961
305.029
304.821
304.832
304.857
304.896
304.948
305.009
304.799
304.761
304.811
304.774
304.841
304.808
304.888
304.862
304.952
304.932
305.026
305.005
305.103
305.174
305.235
305.287
305.326
305.354
305.075
305.139
305.197
305.246
305.284
305.311
304.872
304.89
304.887
304.862
304.815
304.883
304.901
304.898
304.873
304.826
304.909
304.928
304.925
304.9
304.853
304.952
304.971
304.968
304.944
304.896
305.009
305.029
305.027
305.003
304.955
305.079
305.1
305.099
305.075
305.027
304.868
304.887
304.884
304.859
304.812
304.879
304.897
304.894
304.869
304.822
304.904
304.923
304.92
304.895
304.848
304.944
304.963
304.961
304.936
304.889
304.997
305.017
305.015
304.99
304.943
305.059
305.08
305.079
305.055
305.008
304.846
304.864
304.861
304.836
304.789
304.807
304.825
304.822
304.797
304.751
304.858
304.876
304.873
304.848
304.801
304.821
304.839
304.836
304.811
304.765
304.888
304.906
304.903
304.879
304.832
304.855
304.873
304.87
304.846
304.799
304.936
304.955
304.952
304.928
304.88
304.91
304.929
304.926
304.902
304.855
305
305.02
305.018
304.994
304.946
304.981
305.001
304.999
304.975
304.928
305.076
305.097
305.096
305.072
305.024
305.055
305.076
305.075
305.051
305.004
305.154
305.177
305.177
305.154
305.106
305.227
305.252
305.254
305.232
305.185
305.291
305.319
305.323
305.303
305.257
305.347
305.378
305.385
305.367
305.322
305.39
305.424
305.435
305.42
305.375
305.421
305.458
305.47
305.455
305.411
305.126
305.148
305.148
305.125
305.078
305.192
305.216
305.217
305.195
305.148
305.252
305.278
305.282
305.261
305.215
305.303
305.332
305.338
305.319
305.273
305.344
305.375
305.383
305.365
305.319
305.372
305.404
305.413
305.395
305.35
304.83
304.852
304.889
304.941
305.009
305.089
304.827
304.847
304.883
304.933
304.995
305.066
304.805
304.767
304.828
304.792
304.868
304.837
304.927
304.904
305.003
304.986
305.09
305.073
305.173
305.251
305.313
305.356
305.374
305.372
305.139
305.206
305.263
305.302
305.323
305.325
304.877
304.896
304.892
304.867
304.82
304.899
304.917
304.914
304.889
304.842
304.936
304.955
304.952
304.926
304.879
304.989
305.008
305.006
304.98
304.933
305.058
305.077
305.075
305.05
305.002
305.139
305.159
305.157
305.132
305.084
304.874
304.892
304.889
304.864
304.817
304.894
304.913
304.91
304.885
304.838
304.93
304.949
304.946
304.921
304.874
304.981
305
304.997
304.972
304.925
305.044
305.063
305.061
305.036
304.988
305.115
305.136
305.134
305.109
305.061
304.851
304.869
304.866
304.841
304.794
304.813
304.831
304.828
304.803
304.756
304.874
304.893
304.89
304.864
304.817
304.838
304.857
304.853
304.828
304.782
304.915
304.934
304.931
304.906
304.859
304.884
304.902
304.899
304.874
304.827
304.975
304.994
304.991
304.966
304.918
304.951
304.97
304.967
304.942
304.895
305.051
305.071
305.068
305.043
304.995
305.034
305.054
305.051
305.026
304.979
305.139
305.16
305.158
305.133
305.085
305.123
305.143
305.141
305.116
305.068
305.224
305.246
305.245
305.221
305.172
305.304
305.327
305.327
305.304
305.256
305.369
305.394
305.397
305.375
305.327
305.415
305.444
305.449
305.43
305.383
305.437
305.47
305.479
305.462
305.417
305.438
305.474
305.485
305.47
305.426
305.189
305.211
305.21
305.186
305.138
305.259
305.282
305.283
305.259
305.211
305.317
305.342
305.344
305.322
305.275
305.359
305.387
305.391
305.37
305.324
305.382
305.412
305.418
305.399
305.353
305.386
305.417
305.425
305.408
305.362
305.389
305.392
305.26
305.174
305.171
305.15
305.228
305.442
305.419
305.424
305.36
305.356
305.372
305.312
305.303
305.269
305.445
305.43
305.364
305.356
305.396
305.383
305.333
305.322
305.247
305.244
305.312
305.311
305.418
305.41
305.441
305.411
305.4
305.431
305.34
305.27
305.357
305.491
305.541
305.56
305.553
305.519
305.469
305.512
305.528
305.518
305.476
305.313
305.336
305.336
305.312
305.264
305.224
305.246
305.245
305.22
305.172
305.222
305.244
305.243
305.219
305.171
305.2
305.221
305.22
305.195
305.147
305.28
305.303
305.302
305.278
305.229
305.533
305.577
305.593
305.584
305.55
305.506
305.549
305.563
305.551
305.514
305.492
305.528
305.54
305.525
305.481
305.439
305.477
305.488
305.473
305.431
305.414
305.442
305.447
305.427
305.38
305.435
305.467
305.475
305.457
305.412
305.367
305.394
305.397
305.375
305.328
305.36
305.387
305.391
305.37
305.323
305.323
305.349
305.351
305.329
305.282
305.534
305.578
305.594
305.584
305.549
305.495
305.529
305.539
305.523
305.477
305.421
305.449
305.453
305.432
305.385
305.412
305.439
305.442
305.42
305.373
305.455
305.484
305.49
305.47
305.423
305.441
305.469
305.473
305.452
305.405
305.388
305.414
305.416
305.394
305.346
305.376
305.401
305.403
305.38
305.332
305.3
305.324
305.325
305.301
305.253
305.297
305.32
305.32
305.296
305.248
305.367
305.392
305.394
305.372
305.324
305.365
305.389
305.391
305.368
305.32
305.514
305.56
305.577
305.569
305.534
305.481
305.519
305.533
305.519
305.476
305.518
305.558
305.573
305.561
305.522
305.474
305.507
305.516
305.499
305.454
305.46
305.49
305.496
305.477
305.43
305.496
305.531
305.541
305.526
305.481
305.395
305.421
305.423
305.401
305.353
305.323
305.346
305.346
305.323
305.275
305.413
305.439
305.442
305.42
305.373
305.331
305.377
305.397
305.391
305.362
305.304
305.402
305.398
305.477
305.479
305.394
305.387
305.474
305.47
305.319
305.234
305.319
305.242
305.311
305.314
305.256
305.404
305.4
305.481
305.483
305.395
305.388
305.477
305.471
305.316
305.226
305.315
305.236
305.307
305.313
305.25
305.404
305.399
305.482
305.485
305.394
305.386
305.477
305.47
305.312
305.203
305.311
305.216
305.303
305.309
305.234
305.388
305.383
305.467
305.47
305.377
305.367
305.462
305.454
305.29
305.175
305.29
305.188
305.283
305.29
305.209
305.358
305.353
305.437
305.44
305.347
305.336
305.431
305.424
305.26
305.152
305.261
305.163
305.254
305.259
305.183
305.304
305.3
305.381
305.385
305.295
305.285
305.376
305.369
305.212
305.113
305.214
305.123
305.208
305.213
305.144
305.598
305.598
305.544
305.545
305.597
305.595
305.543
305.54
305.636
305.665
305.634
305.66
305.633
305.628
305.651
305.602
305.602
305.548
305.549
305.599
305.596
305.545
305.542
305.642
305.665
305.639
305.659
305.635
305.628
305.65
305.604
305.603
305.55
305.552
305.598
305.594
305.546
305.54
305.64
305.653
305.635
305.648
305.63
305.622
305.639
305.59
305.587
305.535
305.538
305.582
305.576
305.53
305.525
305.621
305.626
305.616
305.621
305.608
305.599
305.612
305.558
305.555
305.504
305.507
305.548
305.54
305.499
305.493
305.585
305.586
305.58
305.582
305.572
305.561
305.575
305.5
305.497
305.447
305.45
305.49
305.483
305.442
305.436
305.527
305.533
305.522
305.528
305.514
305.506
305.521
304.923
304.937
304.965
304.988
305.023
305.047
305.103
305.123
305.085
305.108
305.022
305.045
304.976
304.997
304.938
304.954
305.043
305.074
305.084
305.126
305.14
305.179
305.178
305.228
304.874
304.792
304.889
304.812
304.913
304.834
304.938
304.863
305
304.954
305.042
304.984
304.885
304.933
305.133
305.208
305.175
305.231
305.222
305.286
305.272
305.32
305.05
305.126
305.094
305.152
304.982
305.057
304.697
304.64
304.736
304.676
304.74
304.668
304.786
304.72
304.8
304.703
304.873
304.783
304.93
304.841
304.997
304.905
305.068
305.082
305.132
305.139
305.197
305.214
305.249
305.266
305.019
305.004
304.945
304.944
305.186
305.187
305.236
305.227
305.296
305.309
305.34
305.347
305.081
305.055
305.135
305.096
304.908
304.8
304.87
304.749
304.829
304.718
304.807
304.682
304.974
304.868
304.922
304.803
305.034
304.928
304.964
304.846
304.562
304.438
304.542
304.42
304.602
304.486
304.564
304.448
304.666
304.576
304.6
304.504
304.978
305.129
304.84
304.737
304.625
305.106
304.946
304.782
304.672
304.551
305.149
305.006
304.868
304.738
304.611
304.324
304.266
304.266
304.214
304.383
304.316
304.306
304.25
304.484
304.409
304.373
304.307
305.067
305.004
304.893
304.809
304.732
304.645
304.605
304.519
304.437
304.353
305.12
305.068
304.96
304.873
304.811
304.713
304.663
304.558
304.478
304.369
305.039
304.942
305.11
305.024
305.196
305.164
305.26
305.239
304.951
304.839
304.882
304.763
305.169
305.083
305.209
305.127
305.311
305.292
305.348
305.333
305.013
304.899
305.053
304.942
304.771
304.638
304.549
304.39
304.715
304.575
304.511
304.355
304.822
304.693
304.585
304.429
304.87
304.74
304.635
304.487
304.243
304.214
304.165
304.234
304.218
304.173
304.282
304.246
304.194
304.263
304.245
304.196
304.358
304.312
304.254
304.306
304.28
304.225
304.926
304.839
304.746
304.718
304.641
304.559
304.561
304.494
304.421
304.45
304.392
304.323
304.34
304.306
304.242
304.995
304.896
304.791
304.756
304.653
304.55
304.594
304.502
304.409
304.464
304.392
304.31
304.343
304.3
304.225
305.313
305.345
305.342
305.383
305.235
305.274
305.268
305.317
305.323
305.385
305.331
305.388
305.344
305.399
305.358
305.409
305.404
305.376
305.422
305.389
305.412
305.435
305.416
305.454
305.356
305.398
305.423
305.46
305.449
305.483
305.449
305.485
305.447
305.503
305.437
305.488
305.458
305.514
305.456
305.507
305.467
305.528
305.484
305.539
305.496
305.543
305.527
305.565
305.385
305.413
305.423
305.453
305.304
305.327
305.347
305.373
305.476
305.512
305.443
305.476
305.46
305.489
305.496
305.52
305.389
305.412
305.428
305.446
305.508
305.543
305.542
305.571
305.52
305.567
305.549
305.576
305.493
305.544
305.518
305.55
305.547
305.587
305.577
305.599
305.576
305.609
305.601
305.619
305.443
305.413
305.496
305.466
305.445
305.413
305.501
305.469
305.448
305.419
305.508
305.48
305.356
305.258
305.417
305.465
305.517
305.237
305.333
305.389
305.437
305.492
305.278
305.373
305.441
305.487
305.523
305.363
305.294
305.415
305.349
305.368
305.302
305.424
305.36
305.379
305.317
305.44
305.38
305.208
305.154
305.31
305.255
305.368
305.312
305.413
305.356
305.465
305.408
305.26
305.227
305.357
305.324
305.423
305.384
305.466
305.419
305.497
305.44
305.416
305.402
305.458
305.454
305.328
305.316
305.377
305.379
305.509
305.492
305.473
305.447
305.49
305.495
305.521
305.528
305.416
305.426
305.45
305.463
305.538
305.528
305.566
305.559
305.54
305.508
305.552
305.505
305.507
305.468
305.527
305.474
305.567
305.542
305.575
305.533
305.59
305.568
305.595
305.558
305.202
305.111
305.025
305.235
305.132
305.046
305.215
305.123
305.035
305.251
305.147
305.057
305.235
305.144
305.055
305.276
305.167
305.071
305.083
304.995
304.901
305.182
305.091
304.994
305.237
305.142
305.043
305.277
305.181
305.086
305.303
305.188
305.083
305.169
305.072
304.965
305.263
305.164
305.056
305.315
305.211
305.099
305.338
305.228
305.115
305.33
305.209
305.094
305.524
305.482
305.376
305.186
305.506
305.461
305.352
305.161
305.532
305.488
305.382
305.191
305.521
305.473
305.363
305.171
305.542
305.496
305.394
305.208
305.547
305.495
305.387
305.196
305.544
305.487
305.371
305.176
305.556
305.492
305.371
305.175
305.566
305.511
305.405
305.216
305.563
305.504
305.406
305.236
305.549
305.5
305.404
305.228
305.544
305.491
305.4
305.24
305.58
305.52
305.405
305.209
305.579
305.515
305.412
305.238
305.595
305.529
305.41
305.215
305.594
305.526
305.419
305.245
305.521
305.483
305.387
305.208
305.496
305.464
305.382
305.225
305.523
305.484
305.389
305.212
305.497
305.463
305.382
305.227
305.526
305.485
305.393
305.22
305.502
305.465
305.383
305.23
305.527
305.483
305.395
305.233
305.508
305.467
305.386
305.237
305.525
305.477
305.393
305.244
305.458
305.431
305.357
305.244
305.415
305.391
305.315
305.21
305.463
305.433
305.358
305.246
305.42
305.393
305.317
305.21
305.471
305.438
305.361
305.248
305.429
305.398
305.319
305.212
305.484
305.445
305.366
305.253
305.441
305.404
305.323
305.215
305.501
305.454
305.373
305.258
305.455
305.411
305.326
305.218
305.532
305.472
305.382
305.262
305.49
305.431
305.339
305.227
305.516
305.463
305.377
305.259
305.473
305.421
305.333
305.222
305.546
305.48
305.386
305.264
305.507
305.441
305.346
305.231
305.559
305.489
305.392
305.269
305.522
305.451
305.352
305.236
304.901
304.673
304.479
304.323
304.203
304.887
304.661
304.468
304.312
304.192
304.903
304.674
304.48
304.323
304.203
304.89
304.663
304.469
304.313
304.194
304.906
304.675
304.481
304.324
304.204
304.9
304.672
304.478
304.321
304.201
304.895
304.666
304.472
304.315
304.195
304.898
304.668
304.474
304.316
304.196
304.909
304.676
304.481
304.324
304.204
304.897
304.66
304.464
304.307
304.188
304.906
304.672
304.477
304.32
304.201
304.893
304.656
304.46
304.304
304.184
304.909
304.676
304.481
304.324
304.204
304.896
304.658
304.462
304.305
304.185
304.913
304.679
304.483
304.325
304.205
304.897
304.658
304.461
304.304
304.184
304.9
304.667
304.473
304.317
304.197
304.883
304.647
304.453
304.297
304.178
304.9
304.667
304.473
304.316
304.197
304.883
304.647
304.453
304.297
304.178
304.9
304.665
304.471
304.314
304.194
304.883
304.646
304.452
304.296
304.176
304.895
304.658
304.463
304.306
304.187
304.88
304.643
304.448
304.292
304.173
304.885
304.647
304.452
304.296
304.177
304.014
303.98
304.032
303.996
304.062
304.022
304.1
304.054
304.14
304.085
304.203
304.14
304.171
304.11
304.234
304.174
304.266
304.211
303.646
303.247
302.914
302.658
302.485
303.652
303.25
302.914
302.656
302.48
303.654
303.251
302.917
302.66
302.487
303.659
303.253
302.916
302.657
302.481
303.669
303.259
302.922
302.664
302.49
303.673
303.261
302.921
302.661
302.484
303.689
303.271
302.93
302.67
302.495
303.692
303.272
302.929
302.666
302.489
303.713
303.287
302.941
302.678
302.501
303.712
303.285
302.937
302.672
302.494
303.765
303.324
302.968
302.699
302.52
303.76
303.319
302.962