/*--------------------------------*- C++ -*----------------------------------*\
  =========                 |
  \\      /  F ield         | OpenFOAM: The Open Source CFD Toolbox
   \\    /   O peration     | Website:  https://openfoam.org
    \\  /    A nd           | Version:  12
     \\/     M anipulation  |
\*---------------------------------------------------------------------------*/
FoamFile
{
    format      ascii;
    class       volScalarField;
    location    "510";
    object      T;
}
// * * * * * * * * * * * * * * * * * * * * * * * * * * * * * * * * * * * * * //

dimensions      [];

internalField   nonuniform List<scalar> 
4480
(
6.72126e-06
0.000320545
0.0278405
0.140806
0.284803
0.416471
0.524381
0.609224
0.67497
0.725791
0.765197
0.795926
0.820038
0.839076
0.854184
0.866217
0.875814
0.883462
0.889524
0.89428
0.897952
0.900706
0.902676
0.903961
0.904643
0.904789
0.904449
0.903849
0.903242
0.902623
0.901993
0.901348
0.90068
0.89999
0.899273
0.898527
0.897747
0.89693
0.89607
0.895167
0.894217
0.893211
0.892146
0.891021
0.889828
0.88856
0.887213
0.885787
0.884268
0.882648
0.88093
0.879108
0.877164
0.875099
0.872905
0.87057
0.868095
0.865474
0.862688
0.859742
0.856617
0.853315
0.849823
0.846139
0.842246
0.838152
0.833831
0.829297
0.82452
0.819515
0.814257
0.808748
0.802978
0.79694
0.790626
0.784027
0.777139
0.76995
0.762454
0.754644
0.746509
0.738042
0.729236
0.720133
0.710742
0.701058
0.691081
0.680811
0.670248
0.659395
0.648256
0.636839
0.625154
0.613214
0.60104
0.588655
0.576096
0.563403
0.550637
0.537868
0.525183
0.512688
0.500501
0.488778
0.477673
0.467371
0.458074
0.449992
0.443347
0.438369
0.435291
0.434342
0.435738
0.439694
0.446389
0.455989
0.468602
0.484295
0.50307
0.524938
0.550165
0.57966
0.615005
0.660104
0.730393
0.83292
0.904591
0.95849
0.948571
0.873101
0.800202
0.691354
0.593908
0.515067
0.442268
0.371941
0.302218
0.231501
0.15956
0.0849465
2.74392e-06
0.00793638
0.133172
0.350002
0.539993
0.677367
0.770699
0.833164
0.875185
0.90387
0.923821
0.93798
0.94824
0.955817
0.961498
0.965824
0.96915
0.971721
0.973712
0.975248
0.976423
0.977296
0.977921
0.978332
0.97856
0.978622
0.978538
0.978207
0.977546
0.976589
0.975368
0.973914
0.972261
0.970436
0.968462
0.966369
0.964177
0.961907
0.95957
0.957185
0.954766
0.952322
0.949856
0.947381
0.9449
0.942413
0.939925
0.937434
0.93494
0.932441
0.929934
0.927421
0.924893
0.922345
0.919777
0.917178
0.914552
0.911888
0.90918
0.90643
0.903621
0.900763
0.897837
0.894847
0.891787
0.888657
0.885445
0.882147
0.878767
0.875302
0.871742
0.868088
0.864337
0.86049
0.856535
0.85248
0.848318
0.844044
0.83967
0.835182
0.83058
0.825876
0.821055
0.816137
0.811137
0.806047
0.800873
0.795629
0.790311
0.784938
0.779518
0.774061
0.768586
0.763113
0.757666
0.752266
0.746953
0.741753
0.736711
0.731879
0.72731
0.723061
0.719204
0.715808
0.712969
0.710765
0.709305
0.708682
0.709016
0.710414
0.712992
0.716851
0.722098
0.72882
0.737085
0.746945
0.758418
0.771508
0.786198
0.802493
0.820468
0.840315
0.862274
0.88652
0.91284
0.939084
0.960957
0.975479
0.963635
0.920516
0.875186
0.824129
0.768264
0.708034
0.642579
0.570829
0.491516
0.403537
0.306899
0.204982
0.00047157
0.0531732
0.303031
0.555997
0.72752
0.8304
0.89029
0.925444
0.946631
0.959873
0.968492
0.974355
0.978502
0.981543
0.983833
0.985595
0.98697
0.988049
0.988897
0.989561
0.990074
0.990459
0.990739
0.990928
0.991036
0.991071
0.991042
0.99093
0.990702
0.990358
0.989899
0.989316
0.98861
0.987771
0.986805
0.985706
0.98448
0.983131
0.981664
0.980087
0.978407
0.976634
0.974778
0.972847
0.970848
0.968796
0.966693
0.964549
0.962369
0.96016
0.95793
0.95568
0.953411
0.951128
0.948837
0.946531
0.944219
0.941897
0.939563
0.93722
0.934865
0.932501
0.93012
0.927729
0.925321
0.922895
0.920453
0.917992
0.915506
0.913005
0.910471
0.907919
0.905339
0.902734
0.900094
0.897431
0.894741
0.892016
0.889263
0.886486
0.883673
0.880837
0.877966
0.875077
0.87216
0.86923
0.866292
0.863345
0.860393
0.857451
0.854522
0.851618
0.848755
0.84594
0.843195
0.840541
0.837996
0.835585
0.83334
0.831294
0.829477
0.827929
0.826701
0.825828
0.825369
0.825377
0.8259
0.826999
0.828736
0.831158
0.834321
0.838268
0.843043
0.848668
0.855161
0.862514
0.870717
0.879729
0.889504
0.899987
0.911112
0.922785
0.934841
0.94696
0.958611
0.968961
0.976881
0.980915
0.972359
0.944746
0.91552
0.882931
0.845457
0.801544
0.749398
0.686844
0.611305
0.52008
0.411362
0.286278
0.00610744
0.169967
0.497546
0.727494
0.851837
0.914635
0.946542
0.963437
0.972959
0.97876
0.982598
0.985338
0.987417
0.989048
0.990356
0.991411
0.992267
0.992956
0.993509
0.993945
0.994284
0.994541
0.994728
0.994858
0.994937
0.99497
0.994963
0.99491
0.994807
0.994652
0.994443
0.994176
0.993847
0.993451
0.992979
0.992429
0.991796
0.991071
0.990257
0.989348
0.988346
0.987251
0.986066
0.984795
0.983441
0.982012
0.980512
0.978948
0.977325
0.975653
0.973937
0.972181
0.970394
0.968579
0.966743
0.964892
0.963027
0.961149
0.959269
0.957383
0.955498
0.953609
0.951726
0.949847
0.947969
0.946096
0.944232
0.942369
0.940515
0.938663
0.936815
0.934975
0.933136
0.931304
0.929472
0.927642
0.925816
0.923997
0.922177
0.920356
0.918539
0.916728
0.914926
0.913116
0.911314
0.90952
0.907735
0.905969
0.904222
0.902497
0.900802
0.899145
0.897537
0.895983
0.894502
0.893099
0.891798
0.890608
0.889551
0.88865
0.88793
0.88741
0.887122
0.887093
0.88736
0.887943
0.888886
0.890214
0.89196
0.894152
0.896819
0.899976
0.903639
0.907815
0.912492
0.917655
0.923277
0.929314
0.935708
0.942385
0.949253
0.956176
0.962975
0.969393
0.975089
0.979617
0.982382
0.982532
0.976411
0.957446
0.936614
0.913495
0.886663
0.854308
0.814004
0.762386
0.694918
0.605711
0.48818
0.337174
0.0315636
0.34767
0.679039
0.84944
0.923793
0.955967
0.970752
0.978264
0.98261
0.985522
0.987716
0.989499
0.99099
0.992241
0.993281
0.994132
0.994823
0.995375
0.995806
0.996138
0.99639
0.996574
0.996706
0.996793
0.996847
0.996871
0.996871
0.996843
0.996784
0.996693
0.99657
0.996413
0.996223
0.995994
0.995726
0.995412
0.995046
0.994629
0.994151
0.993613
0.993006
0.992333
0.991588
0.990774
0.989888
0.988934
0.987915
0.986831
0.985687
0.984488
0.983239
0.981944
0.98061
0.979241
0.977844
0.976426
0.974988
0.973533
0.972072
0.970603
0.969133
0.967663
0.9662
0.964745
0.963293
0.961857
0.960432
0.959017
0.95762
0.956236
0.954867
0.95351
0.952173
0.950849
0.949542
0.948248
0.946972
0.945709
0.944455
0.943222
0.942
0.940792
0.939602
0.938421
0.937255
0.936106
0.934972
0.933856
0.932765
0.931701
0.930669
0.929671
0.928719
0.927816
0.926969
0.926189
0.925487
0.924877
0.924366
0.923976
0.923714
0.9236
0.923655
0.923895
0.924337
0.925006
0.925917
0.927088
0.928539
0.93029
0.932341
0.93471
0.937392
0.94039
0.943689
0.947263
0.95109
0.955124
0.959314
0.963585
0.967851
0.972002
0.975891
0.979333
0.982089
0.983863
0.984245
0.982645
0.977734
0.964327
0.948134
0.930272
0.909752
0.885101
0.853997
0.812651
0.755117
0.672041
0.549875
0.371824
0.0945782
0.542165
0.817892
0.922117
0.959349
0.973817
0.980376
0.983994
0.986456
0.988438
0.990186
0.991739
0.993088
0.994229
0.995161
0.995906
0.996485
0.996923
0.997247
0.997476
0.997632
0.997734
0.997796
0.99783
0.997844
0.997847
0.997841
0.997827
0.99779
0.997734
0.997659
0.997561
0.997443
0.997301
0.997133
0.996936
0.99671
0.996448
0.996148
0.99581
0.995427
0.994996
0.994514
0.993983
0.993398
0.992758
0.992065
0.991318
0.990522
0.989675
0.988782
0.987846
0.986872
0.985863
0.984822
0.983758
0.982673
0.981571
0.980453
0.97933
0.978205
0.977076
0.975951
0.974831
0.973719
0.97262
0.971529
0.970455
0.969399
0.968355
0.96733
0.966321
0.965332
0.964362
0.963406
0.962472
0.961551
0.960653
0.959771
0.958904
0.958054
0.957224
0.956411
0.955616
0.95483
0.954061
0.953312
0.952582
0.951871
0.951184
0.950528
0.949901
0.949309
0.948756
0.94825
0.947796
0.947403
0.947081
0.946831
0.946666
0.946602
0.946641
0.946802
0.947095
0.947529
0.948123
0.948879
0.94982
0.950948
0.95227
0.953799
0.955528
0.957458
0.959582
0.961889
0.964351
0.966948
0.969638
0.972377
0.975102
0.97774
0.980198
0.98236
0.984084
0.985192
0.985453
0.98456
0.98209
0.977444
0.968001
0.954698
0.939964
0.923193
0.903348
0.878631
0.84554
0.797795
0.72348
0.601376
0.397695
0.200147
0.713321
0.905099
0.958044
0.974462
0.98092
0.984261
0.986511
0.988388
0.990143
0.991823
0.993353
0.994661
0.995726
0.99656
0.997192
0.997648
0.997958
0.99815
0.998252
0.998289
0.998282
0.99825
0.99821
0.99817
0.998138
0.998116
0.998106
0.998087
0.998061
0.998027
0.99798
0.99792
0.997846
0.997755
0.997643
0.997511
0.997354
0.99717
0.996959
0.996716
0.996437
0.996124
0.995773
0.995383
0.994951
0.994477
0.99396
0.993404
0.992805
0.992168
0.991496
0.990788
0.990047
0.98928
0.988489
0.987674
0.986846
0.986004
0.985152
0.984294
0.983433
0.982573
0.981715
0.980867
0.980027
0.979195
0.978377
0.977572
0.976783
0.976009
0.975253
0.974509
0.973787
0.973082
0.972392
0.971718
0.971062
0.970424
0.969806
0.969198
0.968611
0.968043
0.967483
0.966939
0.966411
0.965897
0.9654
0.964922
0.964465
0.964027
0.963616
0.963236
0.962882
0.962568
0.96229
0.962061
0.961881
0.961755
0.961695
0.961702
0.961791
0.961964
0.96223
0.962598
0.963075
0.963669
0.964387
0.96523
0.96621
0.96732
0.968562
0.969933
0.971425
0.973021
0.974701
0.976443
0.978216
0.979977
0.981675
0.983246
0.984612
0.985678
0.986329
0.986416
0.985757
0.984115
0.98117
0.976523
0.969398
0.958437
0.945764
0.93134
0.914434
0.893822
0.866609
0.827112
0.762375
0.644386
0.418511
0.338289
0.838494
0.949624
0.972984
0.980434
0.983918
0.986131
0.987929
0.989649
0.991404
0.993137
0.994679
0.99594
0.996912
0.997627
0.998123
0.998434
0.99859
0.998624
0.998567
0.99845
0.998302
0.99815
0.998009
0.997894
0.997812
0.997766
0.997754
0.997753
0.997758
0.997766
0.997773
0.997777
0.997774
0.99776
0.997733
0.997688
0.997625
0.997542
0.997432
0.9973
0.997139
0.996949
0.996728
0.996475
0.996191
0.995873
0.99552
0.995133
0.994715
0.994263
0.993779
0.993267
0.992728
0.992163
0.991576
0.99097
0.990349
0.989714
0.98907
0.988422
0.987765
0.987111
0.986458
0.985807
0.985164
0.98453
0.983906
0.983291
0.982689
0.982101
0.981529
0.980968
0.980426
0.979893
0.979378
0.978879
0.978393
0.977925
0.97747
0.977028
0.976605
0.976194
0.975797
0.975408
0.975034
0.974672
0.974322
0.973988
0.973673
0.973371
0.973091
0.972835
0.972599
0.97239
0.972214
0.972069
0.971964
0.971898
0.971881
0.971911
0.972002
0.972148
0.972365
0.972654
0.973016
0.973463
0.973989
0.974606
0.975309
0.976103
0.976979
0.977933
0.978959
0.980043
0.981165
0.982304
0.983431
0.984508
0.985495
0.98633
0.986952
0.987276
0.987206
0.986617
0.985359
0.983239
0.980023
0.975424
0.969135
0.960404
0.949203
0.936382
0.921354
0.903322
0.879968
0.846643
0.790781
0.679604
0.43625
0.494743
0.910958
0.967708
0.978756
0.98307
0.985485
0.987267
0.988897
0.990608
0.992444
0.994265
0.995813
0.996995
0.997846
0.99842
0.998764
0.998907
0.998878
0.998714
0.998454
0.998139
0.99781
0.997497
0.997225
0.997011
0.996865
0.996787
0.996772
0.996787
0.996828
0.996888
0.996962
0.997041
0.997124
0.997202
0.99727
0.997325
0.997363
0.997379
0.997376
0.997346
0.997294
0.997213
0.997104
0.996967
0.9968
0.996602
0.996377
0.996122
0.995838
0.995526
0.995186
0.994822
0.994434
0.994023
0.993593
0.993144
0.992681
0.992205
0.99172
0.99123
0.990734
0.990234
0.989736
0.989241
0.988748
0.988264
0.987786
0.987315
0.986857
0.986409
0.985971
0.985546
0.98513
0.984729
0.98434
0.983964
0.983601
0.983249
0.982911
0.982581
0.982269
0.981967
0.981676
0.981392
0.981119
0.980857
0.980606
0.980367
0.980138
0.979926
0.979724
0.979544
0.979377
0.979234
0.979112
0.979016
0.978943
0.978906
0.978898
0.978931
0.979
0.979114
0.979274
0.979485
0.979748
0.980069
0.980444
0.980878
0.981367
0.981916
0.982512
0.983156
0.983835
0.984539
0.985247
0.985947
0.986603
0.987187
0.987657
0.987964
0.988054
0.987849
0.987265
0.9862
0.984527
0.982091
0.978706
0.974164
0.968242
0.960728
0.951082
0.939437
0.925701
0.909362
0.888463
0.85938
0.810799
0.707585
0.452053
0.648701
0.941581
0.973852
0.981386
0.98455
0.986482
0.988052
0.989627
0.991387
0.993343
0.995263
0.996782
0.997851
0.998559
0.998984
0.999159
0.999105
0.998847
0.998431
0.99791
0.997338
0.996771
0.996252
0.995813
0.995476
0.995249
0.995132
0.995112
0.99515
0.995238
0.995365
0.995522
0.995699
0.995886
0.996076
0.996262
0.996434
0.996591
0.996726
0.996839
0.996926
0.996985
0.997014
0.997015
0.996987
0.996931
0.996844
0.996728
0.996583
0.996413
0.996213
0.995989
0.995742
0.995471
0.995182
0.994875
0.994549
0.994211
0.99386
0.993497
0.99313
0.992756
0.992379
0.992001
0.991624
0.991249
0.990878
0.990514
0.990153
0.989803
0.989456
0.989122
0.988795
0.988481
0.988173
0.987876
0.98759
0.987312
0.987047
0.986788
0.986542
0.986306
0.986077
0.985861
0.985648
0.985446
0.985251
0.985064
0.984883
0.984716
0.984557
0.984408
0.984272
0.984152
0.984044
0.983954
0.983879
0.983826
0.983795
0.983785
0.983805
0.983849
0.983924
0.984035
0.984177
0.984356
0.98457
0.984819
0.985109
0.985431
0.985785
0.986167
0.98657
0.986985
0.987399
0.987797
0.988159
0.988459
0.98867
0.988752
0.988665
0.988352
0.987752
0.986787
0.985375
0.983398
0.98074
0.977244
0.972753
0.967087
0.960068
0.951521
0.94112
0.92834
0.913179
0.893875
0.86757
0.824423
0.728991
0.466623
0.756068
0.95779
0.97777
0.98298
0.98551
0.987173
0.988624
0.990192
0.992031
0.994132
0.996145
0.997601
0.998526
0.999084
0.999353
0.999341
0.999049
0.998504
0.997762
0.996901
0.995999
0.995127
0.994346
0.9937
0.993209
0.992888
0.99273
0.992706
0.992777
0.992928
0.993144
0.993411
0.993712
0.994034
0.994365
0.994695
0.995012
0.995311
0.99559
0.995838
0.996058
0.996247
0.9964
0.996519
0.996605
0.996658
0.996679
0.996669
0.996628
0.996559
0.996463
0.99634
0.996195
0.996026
0.995836
0.995626
0.995402
0.995164
0.994911
0.99465
0.99438
0.994103
0.993822
0.993539
0.993255
0.992971
0.992691
0.99241
0.992137
0.991866
0.991604
0.991347
0.991096
0.990854
0.990616
0.990391
0.99017
0.989958
0.989753
0.989553
0.989363
0.989183
0.989006
0.98884
0.988681
0.988524
0.988373
0.988228
0.988093
0.987961
0.98784
0.987724
0.987617
0.987521
0.987432
0.987359
0.987297
0.987247
0.987211
0.987195
0.987196
0.987215
0.987252
0.987315
0.987394
0.9875
0.987625
0.987774
0.987943
0.98813
0.988332
0.988543
0.988754
0.98896
0.989147
0.989298
0.989398
0.989417
0.989334
0.989114
0.988717
0.988094
0.987187
0.985932
0.984251
0.98205
0.979224
0.975652
0.971198
0.965714
0.959041
0.951
0.94136
0.929766
0.915471
0.897272
0.872766
0.83336
0.744632
0.480412
0.839127
0.966801
0.980325
0.984246
0.986221
0.987661
0.98904
0.990628
0.992567
0.994822
0.996928
0.998277
0.99904
0.999451
0.999564
0.999336
0.998743
0.997824
0.996659
0.995359
0.994034
0.992782
0.991681
0.990783
0.990115
0.989688
0.989493
0.989474
0.989594
0.989833
0.990168
0.990578
0.99104
0.991533
0.992041
0.992551
0.993049
0.993526
0.993973
0.994385
0.994758
0.995093
0.995388
0.995639
0.995852
0.996024
0.996158
0.996256
0.996319
0.99635
0.996351
0.996323
0.996269
0.99619
0.99609
0.995969
0.995831
0.995676
0.995509
0.99533
0.995141
0.994945
0.994742
0.994534
0.994326
0.994115
0.993904
0.993694
0.993486
0.993282
0.993081
0.992884
0.992692
0.992505
0.992323
0.992147
0.991979
0.991812
0.991652
0.991498
0.991351
0.99121
0.991072
0.990941
0.990813
0.990693
0.990571
0.990457
0.990348
0.990241
0.990141
0.990046
0.989957
0.989872
0.989797
0.989729
0.989669
0.989618
0.989577
0.989544
0.989523
0.989515
0.98952
0.989535
0.989563
0.989603
0.989653
0.989715
0.989785
0.989859
0.989933
0.990002
0.99006
0.990094
0.990092
0.990045
0.989929
0.989728
0.989409
0.988945
0.988299
0.987425
0.986272
0.984785
0.982894
0.980516
0.977563
0.973933
0.969505
0.964152
0.957727
0.95005
0.940881
0.929857
0.916374
0.899265
0.875951
0.838949
0.755388
0.493746
0.892706
0.972335
0.982076
0.985154
0.986803
0.988034
0.989337
0.990955
0.992998
0.995418
0.997609
0.998818
0.999412
0.999694
0.999646
0.999152
0.99817
0.99676
0.995052
0.993195
0.991346
0.98963
0.988144
0.986953
0.986086
0.985552
0.985331
0.985331
0.985527
0.985889
0.986384
0.986981
0.987649
0.98836
0.989092
0.989823
0.99054
0.991227
0.991876
0.99248
0.993037
0.993541
0.993994
0.994395
0.994747
0.995048
0.995307
0.99552
0.995691
0.995825
0.995923
0.99599
0.996023
0.996031
0.996013
0.995973
0.995913
0.995834
0.995742
0.995633
0.995515
0.995386
0.99525
0.995108
0.994959
0.99481
0.994656
0.994502
0.994349
0.994197
0.994045
0.993897
0.993752
0.993607
0.993468
0.993331
0.993198
0.993069
0.992944
0.992824
0.992706
0.99259
0.992482
0.992375
0.992272
0.992171
0.992074
0.991978
0.991886
0.991795
0.991708
0.991626
0.991545
0.991466
0.991395
0.991327
0.991262
0.991205
0.991151
0.991101
0.991059
0.991024
0.990992
0.990969
0.990948
0.990931
0.990914
0.990902
0.990884
0.990862
0.990829
0.990779
0.990703
0.990596
0.990441
0.990225
0.989931
0.989541
0.989027
0.98836
0.987506
0.986429
0.985077
0.9834
0.981341
0.978821
0.975767
0.972086
0.967676
0.962419
0.956175
0.948765
0.939946
0.929359
0.916398
0.899927
0.877475
0.841908
0.762046
0.506848
0.917025
0.977579
0.983321
0.985804
0.98721
0.988348
0.989554
0.991181
0.993332
0.995921
0.998202
0.999236
0.999665
0.999844
0.999618
0.998784
0.997293
0.99525
0.992853
0.990311
0.987827
0.985559
0.98363
0.982112
0.981036
0.980402
0.980181
0.980225
0.980532
0.98106
0.981765
0.982601
0.983528
0.984509
0.985513
0.986514
0.987488
0.988424
0.989311
0.990137
0.990902
0.991601
0.992235
0.992804
0.99331
0.993756
0.994146
0.994483
0.99477
0.995011
0.99521
0.995371
0.995495
0.995587
0.99565
0.995685
0.9957
0.995692
0.995666
0.995624
0.995566
0.995498
0.995419
0.995333
0.995238
0.99514
0.995036
0.99493
0.99482
0.994711
0.994601
0.99449
0.994379
0.994272
0.994165
0.994057
0.993956
0.993852
0.993754
0.993654
0.993561
0.993466
0.993376
0.993287
0.993203
0.993116
0.993031
0.992949
0.992866
0.992785
0.992704
0.992625
0.992547
0.992472
0.992397
0.992324
0.992251
0.992181
0.992115
0.992049
0.991983
0.99192
0.991855
0.991791
0.991725
0.991656
0.991582
0.991499
0.991408
0.991301
0.991174
0.991018
0.99083
0.990598
0.99031
0.989951
0.989509
0.988957
0.988276
0.987438
0.986411
0.98516
0.983641
0.981811
0.979609
0.976972
0.973836
0.970114
0.965715
0.960528
0.954419
0.947207
0.938655
0.928403
0.915848
0.899888
0.878114
0.843649
0.76642
0.516357
0.932268
0.979481
0.984223
0.986259
0.987482
0.988542
0.989744
0.991313
0.993568
0.996331
0.998704
0.999541
0.999827
0.999928
0.999493
0.998212
0.996058
0.993216
0.989967
0.9866
0.983366
0.980466
0.97804
0.976168
0.97488
0.974169
0.973985
0.974114
0.974584
0.975338
0.976316
0.977455
0.9787
0.980007
0.981335
0.982651
0.98393
0.985155
0.98631
0.987388
0.988386
0.989302
0.990135
0.990887
0.991563
0.992165
0.992699
0.993166
0.993575
0.993929
0.994233
0.99449
0.994706
0.994883
0.995026
0.995138
0.995222
0.995282
0.99532
0.995339
0.99534
0.995326
0.9953
0.995262
0.995215
0.99516
0.995099
0.995032
0.994962
0.994886
0.994809
0.994732
0.994652
0.994571
0.994489
0.994408
0.994326
0.994245
0.994163
0.994083
0.994004
0.993927
0.99385
0.993774
0.993697
0.993621
0.993543
0.993468
0.993389
0.993313
0.993234
0.993155
0.993075
0.992997
0.992916
0.992836
0.992754
0.99267
0.992587
0.992498
0.99241
0.992319
0.992221
0.992119
0.992011
0.991894
0.991765
0.991622
0.991461
0.991277
0.991065
0.99082
0.990531
0.990189
0.989782
0.989299
0.988723
0.988033
0.987209
0.986224
0.985049
0.983651
0.981994
0.98003
0.977708
0.974979
0.971773
0.968015
0.963623
0.958486
0.952477
0.94542
0.937077
0.927088
0.91486
0.899305
0.878073
0.844465
0.769199
0.523032
0.942832
0.980922
0.984943
0.986551
0.987615
0.988623
0.98984
0.991424
0.993706
0.996641
0.99912
0.999751
0.99992
0.999971
0.99927
0.997401
0.9944
0.990571
0.986302
0.981966
0.977874
0.974262
0.971292
0.969053
0.967573
0.966823
0.966636
0.96691
0.967623
0.96869
0.970026
0.971552
0.973195
0.974897
0.976609
0.978292
0.979917
0.981466
0.982922
0.984279
0.985533
0.986682
0.98773
0.988679
0.989534
0.990301
0.990985
0.991594
0.992129
0.9926
0.993012
0.993369
0.993676
0.993939
0.994162
0.994348
0.994502
0.994627
0.994727
0.994803
0.994857
0.994895
0.994918
0.994924
0.994919
0.994906
0.994881
0.99485
0.994812
0.994769
0.994721
0.994667
0.994612
0.994554
0.994493
0.994431
0.994368
0.994302
0.994235
0.99417
0.9941
0.994031
0.993963
0.993896
0.993825
0.993752
0.993681
0.993605
0.99353
0.993451
0.993371
0.99329
0.993204
0.993119
0.99303
0.992938
0.992841
0.992742
0.992639
0.992531
0.992419
0.992296
0.992168
0.992031
0.991878
0.991715
0.991534
0.991335
0.991111
0.990857
0.990568
0.99024
0.98986
0.989419
0.988912
0.988318
0.987624
0.986812
0.985862
0.984747
0.983446
0.981921
0.980143
0.978069
0.975651
0.972839
0.969576
0.965789
0.961397
0.956303
0.95037
0.943433
0.935257
0.925481
0.913518
0.898299
0.877505
0.844576
0.770785
0.527532
0.95047
0.981957
0.985355
0.986706
0.987633
0.988581
0.989822
0.991504
0.993764
0.996851
0.999455
0.999883
0.999969
0.99999
0.998939
0.996312
0.992254
0.987234
0.981771
0.976326
0.971269
0.966874
0.963326
0.960722
0.959083
0.958357
0.95821
0.958711
0.959754
0.961225
0.963009
0.965004
0.96712
0.969282
0.971433
0.973529
0.97554
0.97744
0.97922
0.980876
0.9824
0.983796
0.985068
0.986221
0.987262
0.988198
0.989037
0.989786
0.990452
0.991041
0.99156
0.992019
0.992419
0.992768
0.993071
0.993333
0.993553
0.993741
0.993899
0.994029
0.994138
0.994222
0.994288
0.994339
0.994374
0.994396
0.994406
0.994405
0.994396
0.994379
0.994356
0.994325
0.994291
0.994249
0.994207
0.994159
0.994108
0.994055
0.994
0.993942
0.993881
0.993819
0.993755
0.993689
0.993621
0.993551
0.993478
0.993403
0.993325
0.993243
0.993158
0.993068
0.992976
0.99288
0.99278
0.992674
0.992563
0.992447
0.992323
0.992193
0.992053
0.991903
0.991742
0.991567
0.991377
0.991167
0.990938
0.990683
0.9904
0.990082
0.989723
0.989317
0.988854
0.988329
0.987725
0.987032
0.986234
0.985314
0.984254
0.98303
0.981617
0.979985
0.978103
0.975934
0.973429
0.970551
0.96724
0.963427
0.959036
0.953971
0.948103
0.941265
0.933225
0.923626
0.911891
0.89695
0.87653
0.844148
0.771451
0.530348
0.956127
0.982685
0.985568
0.986727
0.987523
0.988418
0.989682
0.991465
0.993817
0.996955
0.999711
0.999956
0.999991
0.999997
0.998488
0.994895
0.989554
0.983135
0.976306
0.969621
0.963502
0.958258
0.954104
0.951148
0.949405
0.948789
0.948826
0.94966
0.951148
0.953127
0.955457
0.958006
0.960661
0.963336
0.965966
0.968508
0.970922
0.973195
0.975309
0.977268
0.979067
0.980712
0.982209
0.983567
0.984793
0.985899
0.986891
0.987779
0.988572
0.989281
0.989908
0.990464
0.990955
0.991387
0.991767
0.992097
0.992387
0.992635
0.992851
0.993033
0.993191
0.993319
0.993428
0.993517
0.993588
0.993642
0.993683
0.99371
0.993727
0.993733
0.993731
0.993719
0.993702
0.993675
0.993645
0.99361
0.99357
0.993525
0.993475
0.993422
0.993368
0.993307
0.993244
0.99318
0.993111
0.99304
0.992963
0.992884
0.9928
0.992712
0.992618
0.992521
0.992416
0.99231
0.992195
0.992074
0.991947
0.99181
0.991666
0.991509
0.991343
0.991165
0.99097
0.99076
0.990531
0.990279
0.990001
0.989697
0.989356
0.988976
0.988553
0.988077
0.987539
0.98693
0.986242
0.98546
0.98457
0.983557
0.982399
0.981076
0.979566
0.97784
0.97587
0.973616
0.971045
0.968111
0.964757
0.960923
0.956536
0.951497
0.945683
0.938929
0.931005
0.921559
0.910016
0.895326
0.875222
0.843289
0.771407
0.531857
0.960372
0.983183
0.985632
0.98661
0.98729
0.988121
0.989408
0.991303
0.99384
0.996975
0.999888
0.999989
0.999997
0.999999
0.997899
0.993108
0.986237
0.978216
0.969867
0.961824
0.954552
0.948394
0.943603
0.940321
0.938561
0.938077
0.938443
0.939788
0.941899
0.944556
0.947567
0.950769
0.954036
0.957272
0.960411
0.963408
0.966233
0.968872
0.971317
0.973569
0.975632
0.977515
0.979227
0.980779
0.982179
0.983447
0.984584
0.985605
0.986519
0.987336
0.988067
0.98872
0.989295
0.98981
0.990262
0.990661
0.991013
0.991322
0.991589
0.991822
0.992022
0.992194
0.992341
0.992466
0.992568
0.992653
0.992718
0.992771
0.99281
0.992836
0.99285
0.992855
0.992853
0.99284
0.992819
0.992792
0.992759
0.992718
0.992672
0.992622
0.992569
0.992509
0.992444
0.992376
0.992303
0.992229
0.992146
0.992059
0.991967
0.991871
0.991768
0.991658
0.991543
0.99142
0.991289
0.991152
0.991004
0.990847
0.990679
0.990498
0.990305
0.990096
0.98987
0.989625
0.989355
0.989061
0.988739
0.988384
0.987992
0.987553
0.987069
0.986526
0.985919
0.985238
0.984474
0.983609
0.982637
0.981538
0.980293
0.978886
0.977292
0.975485
0.973438
0.971119
0.96849
0.965505
0.962122
0.958273
0.953891
0.948873
0.94311
0.936434
0.928613
0.919302
0.907934
0.893466
0.873648
0.842094
0.770816
0.532342
0.963575
0.983479
0.985553
0.986332
0.986928
0.987688
0.988989
0.991003
0.993739
0.996992
0.999984
0.999999
1
1
0.997151
0.990903
0.982258
0.972445
0.962442
0.952943
0.944432
0.937284
0.931816
0.928247
0.926593
0.926034
0.926984
0.929136
0.932154
0.935726
0.939598
0.943574
0.947522
0.951352
0.955005
0.95845
0.961661
0.964642
0.967384
0.969903
0.972203
0.974301
0.976203
0.977928
0.979484
0.980893
0.982162
0.983303
0.984327
0.985246
0.986069
0.986805
0.987462
0.988047
0.988568
0.989029
0.989438
0.989799
0.990116
0.990394
0.990636
0.990846
0.991027
0.991184
0.991315
0.991424
0.991514
0.991589
0.991646
0.991687
0.991718
0.991734
0.991742
0.991738
0.991723
0.991703
0.991674
0.991636
0.991591
0.991542
0.991485
0.991422
0.991354
0.991282
0.991203
0.99112
0.99103
0.990933
0.99083
0.990722
0.990605
0.990482
0.990353
0.990212
0.990066
0.989907
0.98974
0.989559
0.989369
0.989163
0.98894
0.988702
0.988443
0.98816
0.987852
0.987519
0.987152
0.986751
0.986306
0.985817
0.985273
0.984671
0.984
0.983252
0.982416
0.981481
0.980436
0.97926
0.977938
0.976459
0.974791
0.972915
0.970804
0.96843
0.965752
0.962732
0.959326
0.955465
0.951089
0.946101
0.940385
0.933775
0.926054
0.916875
0.905671
0.89141
0.871856
0.840624
0.769791
0.532013
0.965958
0.983622
0.985361
0.985951
0.986431
0.987101
0.988409
0.990548
0.99351
0.997008
1
0.999999
0.999998
0.999999
0.996225
0.988244
0.977582
0.965818
0.954063
0.943041
0.933212
0.924963
0.918725
0.91491
0.913549
0.913482
0.915294
0.918512
0.922652
0.927291
0.932112
0.936901
0.941529
0.945919
0.950042
0.953873
0.957419
0.96068
0.96367
0.966403
0.968895
0.971162
0.97322
0.975085
0.976771
0.978298
0.979673
0.980911
0.982028
0.983035
0.983934
0.984743
0.985467
0.986115
0.986692
0.987208
0.987667
0.988074
0.988436
0.988753
0.989031
0.989272
0.989485
0.989668
0.989822
0.989956
0.990065
0.990156
0.990228
0.990283
0.990323
0.990348
0.990363
0.990365
0.990356
0.990336
0.990305
0.99027
0.990222
0.99017
0.990107
0.990042
0.989966
0.989886
0.989798
0.989705
0.989603
0.989494
0.989379
0.989258
0.989127
0.988987
0.98884
0.988683
0.988515
0.988337
0.988146
0.987945
0.987728
0.987493
0.987245
0.986972
0.98668
0.986366
0.98602
0.985646
0.985239
0.984789
0.984299
0.983758
0.983161
0.982503
0.981772
0.980964
0.980064
0.979065
0.977952
0.976711
0.975326
0.973779
0.97205
0.970118
0.967953
0.965532
0.962819
0.959771
0.956348
0.952489
0.948124
0.943165
0.937493
0.930958
0.923334
0.914282
0.903243
0.889186
0.869873
0.838937
0.768418
0.531037
0.967694
0.983639
0.985071
0.985461
0.98579
0.986352
0.987653
0.98992
0.993139
0.99695
1
1
0.999998
0.999997
0.995113
0.985097
0.972192
0.958363
0.944822
0.932257
0.921038
0.911515
0.904287
0.900253
0.898623
0.899703
0.903253
0.908302
0.914054
0.919984
0.925794
0.931339
0.936537
0.941368
0.945834
0.949942
0.953711
0.957165
0.960318
0.963194
0.965815
0.968196
0.970358
0.972317
0.974097
0.975705
0.977157
0.978472
0.979657
0.980726
0.981687
0.982552
0.983329
0.984027
0.984653
0.985209
0.985707
0.986151
0.986547
0.986895
0.987201
0.987471
0.987706
0.98791
0.988086
0.988236
0.988359
0.988461
0.988546
0.988609
0.988658
0.988688
0.988705
0.988708
0.9887
0.988679
0.988647
0.988607
0.988556
0.988497
0.988428
0.988351
0.988267
0.988175
0.988077
0.987972
0.987856
0.987734
0.987604
0.987464
0.987318
0.98716
0.986994
0.986816
0.986628
0.986426
0.986214
0.985985
0.985741
0.985481
0.9852
0.9849
0.984573
0.984223
0.983842
0.98343
0.982979
0.982487
0.981952
0.981363
0.980718
0.980006
0.979222
0.978359
0.977404
0.976347
0.975175
0.973877
0.972438
0.970837
0.969055
0.967078
0.964873
0.962416
0.959675
0.95661
0.95318
0.949323
0.944976
0.940051
0.934435
0.927975
0.920449
0.911529
0.900656
0.886804
0.867733
0.83707
0.766757
0.529532
0.968884
0.983546
0.984689
0.98482
0.984934
0.985429
0.986708
0.989102
0.992607
0.996804
0.999997
0.999997
0.999998
0.999996
0.993799
0.981429
0.966088
0.950161
0.934892
0.920862
0.908224
0.897176
0.888431
0.883997
0.88254
0.886205
0.892843
0.900445
0.907956
0.915004
0.921519
0.927513
0.933011
0.938048
0.942658
0.946874
0.950725
0.954244
0.957455
0.96038
0.963047
0.965479
0.967685
0.969689
0.971508
0.973162
0.974659
0.976013
0.977238
0.978345
0.979345
0.980246
0.981058
0.981789
0.982445
0.983033
0.98356
0.984028
0.984447
0.984818
0.985145
0.985431
0.985685
0.985903
0.986088
0.986251
0.986384
0.986493
0.986583
0.986649
0.986699
0.986731
0.986747
0.986748
0.986737
0.986713
0.986673
0.986625
0.986567
0.986497
0.986419
0.98633
0.986234
0.986129
0.986016
0.985895
0.985763
0.985624
0.985478
0.985319
0.985151
0.984975
0.984786
0.984587
0.984377
0.984153
0.983913
0.983659
0.983388
0.983098
0.982789
0.982455
0.982097
0.981713
0.981295
0.980845
0.980355
0.979822
0.979243
0.978611
0.97792
0.977161
0.97633
0.975417
0.974412
0.973305
0.972084
0.970738
0.969247
0.967605
0.965784
0.963768
0.961532
0.959051
0.956292
0.953219
0.949785
0.945944
0.941624
0.936743
0.931188
0.924813
0.917398
0.908614
0.897919
0.88428
0.865457
0.835049
0.76486
0.527581
0.969589
0.983361
0.984229
0.984059
0.983885
0.984328
0.985553
0.988068
0.991888
0.996564
1
1
0.999998
1
0.99227
0.977209
0.959292
0.94136
0.924586
0.909365
0.895467
0.882696
0.871283
0.862454
0.866066
0.878355
0.889448
0.898015
0.905881
0.913139
0.919845
0.925792
0.931214
0.936151
0.940663
0.94479
0.948561
0.952008
0.955159
0.958035
0.960665
0.96306
0.96525
0.967236
0.969048
0.970695
0.972195
0.973555
0.974789
0.975909
0.976917
0.977832
0.978659
0.979403
0.980074
0.980676
0.981214
0.981699
0.982127
0.98251
0.982847
0.983143
0.983401
0.983625
0.983818
0.98398
0.984116
0.984227
0.984315
0.984381
0.984429
0.984456
0.984466
0.98446
0.984441
0.984405
0.984358
0.984299
0.984227
0.984145
0.984053
0.983948
0.983836
0.983714
0.983584
0.983444
0.983295
0.983136