/*--------------------------------*- C++ -*----------------------------------*\
| =========                 |                                                 |
| \\      /  F ield         | OpenFOAM: The Open Source CFD Toolbox           |
|  \\    /   O peration     | Version:  2306                                  |
|   \\  /    A nd           | Website:  www.openfoam.com                      |
|    \\/     M anipulation  |                                                 |
\*---------------------------------------------------------------------------*/
FoamFile
{
    version     2.0;
    format      ascii;
    arch        "LSB;label=32;scalar=64";
    class       volScalarField;
    location    "10";
    object      p;
}
// * * * * * * * * * * * * * * * * * * * * * * * * * * * * * * * * * * * * * //

dimensions      [0 2 -2 0 0 0 0];

internalField   nonuniform List<scalar> 
4480
(
0.0107555
0.0107551
0.0107568
0.0107597
0.0107636
0.0107685
0.0107742
0.0107807
0.0107877
0.0107952
0.0108029
0.0108107
0.0108181
0.0108251
0.0108311
0.010836
0.0108393
0.0108407
0.0108401
0.010837
0.0108315
0.0108233
0.0108126
0.0107994
0.0107839
0.0107663
0.010747
0.0107263
0.0107046
0.0106822
0.0106594
0.0106366
0.010614
0.0105919
0.0105704
0.0105497
0.0105299
0.010511
0.0104932
0.0104764
0.0104607
0.0104459
0.0104321
0.0104192
0.0104073
0.0103961
0.0103857
0.0103761
0.0103671
0.0103588
0.010351
0.0103437
0.0103369
0.0103305
0.0103246
0.010319
0.0103137
0.0103087
0.010304
0.0102995
0.0102952
0.0102911
0.0102872
0.0102835
0.0102799
0.0102764
0.010273
0.0102698
0.0102666
0.0102635
0.0102604
0.0102574
0.0102545
0.0102516
0.0102488
0.010246
0.0102432
0.0102404
0.0102376
0.0102349
0.0102321
0.0102293
0.0102266
0.0102238
0.010221
0.0102181
0.0102153
0.0102124
0.0102094
0.0102064
0.0102033
0.0102002
0.0101969
0.0101936
0.0101901
0.0101865
0.0101828
0.0101788
0.0101747
0.0101703
0.0101656
0.0101606
0.0101553
0.0101495
0.0101432
0.0101363
0.0101288
0.0101205
0.0101113
0.0101014
0.0100911
0.0100817
0.010075
0.0100734
0.0101014
0.0102962
0.0108574
0.0105412
0.00447907
0.0038731
0.00400943
0.00481821
0.011154
0.0113561
0.0106844
0.0104243
0.0103527
0.0103209
0.0103009
0.0102886
0.0102808
0.0102752
0.0102706
0.0102665
0.0102627
0.010259
0.0102554
0.0102521
0.0102485
0.0102426
0.0107558
0.0107553
0.0107567
0.0107591
0.0107623
0.0107663
0.010771
0.0107764
0.0107822
0.0107884
0.0107947
0.010801
0.010807
0.0108124
0.0108171
0.0108206
0.0108227
0.0108232
0.0108217
0.0108182
0.0108125
0.0108044
0.0107941
0.0107816
0.0107671
0.0107508
0.0107329
0.0107137
0.0106936
0.0106728
0.0106517
0.0106304
0.0106093
0.0105885
0.0105682
0.0105486
0.0105297
0.0105117
0.0104945
0.0104782
0.0104629
0.0104484
0.0104348
0.0104221
0.0104102
0.0103991
0.0103887
0.0103789
0.0103699
0.0103614
0.0103535
0.0103461
0.0103391
0.0103326
0.0103265
0.0103208
0.0103153
0.0103102
0.0103054
0.0103007
0.0102964
0.0102922
0.0102882
0.0102843
0.0102806
0.0102771
0.0102736
0.0102702
0.010267
0.0102638
0.0102607
0.0102576
0.0102546
0.0102517
0.0102488
0.0102459
0.010243
0.0102401
0.0102373
0.0102345
0.0102316
0.0102288
0.0102259
0.010223
0.0102201
0.0102171
0.0102141
0.010211
0.0102079
0.0102047
0.0102014
0.010198
0.0101945
0.0101908
0.0101869
0.0101829
0.0101787
0.0101742
0.0101694
0.0101642
0.0101587
0.0101526
0.010146
0.0101388
0.0101307
0.0101217
0.0101115
0.0100999
0.0100865
0.0100709
0.0100526
0.0100304
0.0100018
0.00996006
0.00989479
0.00979581
0.00957829
0.00875726
0.00711393
0.00683629
0.00699846
0.00751683
0.00923767
0.00999588
0.0101503
0.0102049
0.0102355
0.0102479
0.0102517
0.0102527
0.0102529
0.0102526
0.0102518
0.0102508
0.0102494
0.0102478
0.0102461
0.0102444
0.0102424
0.0102366
0.0107543
0.0107538
0.0107551
0.0107574
0.0107605
0.0107644
0.010769
0.0107742
0.0107799
0.010786
0.0107922
0.0107984
0.0108044
0.0108098
0.0108144
0.0108179
0.01082
0.0108205
0.0108191
0.0108156
0.0108099
0.0108018
0.0107915
0.010779
0.0107645
0.0107481
0.0107302
0.0107111
0.010691
0.0106703
0.0106492
0.010628
0.0106071
0.0105864
0.0105663
0.0105468
0.0105281
0.0105102
0.0104932
0.0104771
0.0104619
0.0104476
0.0104341
0.0104215
0.0104097
0.0103986
0.0103883
0.0103786
0.0103696
0.0103612
0.0103533
0.0103459
0.010339
0.0103325
0.0103265
0.0103207
0.0103153
0.0103102
0.0103053
0.0103007
0.0102964
0.0102922
0.0102882
0.0102843
0.0102806
0.010277
0.0102736
0.0102702
0.010267
0.0102638
0.0102607
0.0102576
0.0102546
0.0102516
0.0102487
0.0102458
0.0102429
0.0102401
0.0102372
0.0102344
0.0102315
0.0102286
0.0102258
0.0102228
0.0102199
0.0102169
0.0102139
0.0102108
0.0102076
0.0102044
0.010201
0.0101976
0.010194
0.0101902
0.0101863
0.0101822
0.0101779
0.0101733
0.0101684
0.0101631
0.0101574
0.0101512
0.0101444
0.0101369
0.0101285
0.0101191
0.0101083
0.010096
0.0100816
0.0100645
0.0100436
0.0100172
0.00998195
0.00993154
0.00985402
0.00972616
0.00948886
0.00901841
0.0083889
0.00822136
0.0083408
0.00868039
0.00936568
0.00982685
0.010038
0.0101383
0.0101897
0.0102163
0.0102303
0.0102379
0.0102422
0.0102445
0.0102455
0.0102457
0.0102452
0.0102443
0.0102431
0.0102419
0.01024
0.0102332
0.0107518
0.0107512
0.0107525
0.0107548
0.0107579
0.0107618
0.0107665
0.0107718
0.0107776
0.0107838
0.0107903
0.0107967
0.0108029
0.0108086
0.0108135
0.0108173
0.0108197
0.0108204
0.0108192
0.0108158
0.0108102
0.0108021
0.0107916
0.0107789
0.0107641
0.0107474
0.0107291
0.0107096
0.0106892
0.0106682
0.0106469
0.0106256
0.0106044
0.0105837
0.0105636
0.0105441
0.0105255
0.0105077
0.0104908
0.0104748
0.0104597
0.0104456
0.0104323
0.0104198
0.0104081
0.0103972
0.010387
0.0103775
0.0103686
0.0103603
0.0103525
0.0103452
0.0103384
0.0103319
0.0103259
0.0103202
0.0103149
0.0103098
0.010305
0.0103004
0.0102961
0.0102919
0.010288
0.0102841
0.0102805
0.0102769
0.0102735
0.0102701
0.0102669
0.0102637
0.0102606
0.0102575
0.0102545
0.0102516
0.0102486
0.0102457
0.0102429
0.01024
0.0102372
0.0102343
0.0102314
0.0102286
0.0102257
0.0102228
0.0102198
0.0102168
0.0102138
0.0102107
0.0102075
0.0102043
0.0102009
0.0101975
0.0101939
0.0101901
0.0101862
0.0101821
0.0101777
0.0101731
0.0101682
0.0101629
0.0101572
0.010151
0.0101442
0.0101366
0.0101282
0.0101188
0.010108
0.0100956
0.0100811
0.0100638
0.0100426
0.0100158
0.00998078
0.00993297
0.00986515
0.00976537
0.00961099
0.00936811
0.00907756
0.0089932
0.00908171
0.00929468
0.00963491
0.00988854
0.0100352
0.0101195
0.0101695
0.0101993
0.0102171
0.010228
0.0102347
0.0102387
0.0102409
0.010242
0.0102422
0.0102417
0.0102408
0.0102399
0.0102381
0.0102305
0.0107486
0.0107478
0.0107491
0.0107514
0.0107545
0.0107585
0.0107632
0.0107687
0.0107747
0.0107812
0.0107879
0.0107947
0.0108013
0.0108074
0.0108128
0.010817
0.0108199
0.0108209
0.01082
0.0108168
0.0108111
0.0108029
0.0107922
0.0107792
0.0107639
0.0107467
0.0107279
0.0107079
0.010687
0.0106655
0.0106438
0.0106222
0.0106009
0.01058
0.0105598
0.0105404
0.0105218
0.0105042
0.0104874
0.0104716
0.0104567
0.0104428
0.0104297
0.0104174
0.0104059
0.0103952
0.0103852
0.0103758
0.0103671
0.0103589
0.0103513
0.0103441
0.0103374
0.0103311
0.0103251
0.0103195
0.0103143
0.0103093
0.0103045
0.0103
0.0102957
0.0102916
0.0102876
0.0102839
0.0102802
0.0102767
0.0102733
0.0102699
0.0102667
0.0102635
0.0102604
0.0102574
0.0102544
0.0102515
0.0102486
0.0102457
0.0102428
0.0102399
0.0102371
0.0102343
0.0102314
0.0102285
0.0102257
0.0102227
0.0102198
0.0102168
0.0102138
0.0102107
0.0102075
0.0102042
0.0102009
0.0101974
0.0101939
0.0101901
0.0101862
0.0101821
0.0101778
0.0101732
0.0101683
0.010163
0.0101573
0.0101512
0.0101444
0.010137
0.0101287
0.0101195
0.0101089
0.0100968
0.0100827
0.0100659
0.0100457
0.0100206
0.00998886
0.00994754
0.00989289
0.00982007
0.00972243
0.00959387
0.00946178
0.00942992
0.00949632
0.00962755
0.00980322
0.00994954
0.0100496
0.0101162
0.0101603
0.0101891
0.0102079
0.0102202
0.0102282
0.0102333
0.0102365
0.0102383
0.0102391
0.0102391
0.0102385
0.0102378
0.0102361
0.010228
0.0107445
0.0107435
0.0107447
0.0107471
0.0107503
0.0107544
0.0107593
0.010765
0.0107713
0.0107781
0.0107853
0.0107926
0.0107998
0.0108065
0.0108125
0.0108174
0.0108208
0.0108224
0.0108219
0.0108189
0.0108132
0.0108049
0.0107938
0.0107802
0.0107643
0.0107464
0.0107268
0.010706
0.0106844
0.0106623
0.0106401
0.010618
0.0105964
0.0105753
0.010555
0.0105356
0.0105171
0.0104996
0.010483
0.0104674
0.0104528
0.0104391
0.0104262
0.0104142
0.010403
0.0103925
0.0103827
0.0103736
0.0103651
0.0103571
0.0103496
0.0103426
0.010336
0.0103299
0.010324
0.0103186
0.0103134
0.0103085
0.0103038
0.0102994
0.0102951
0.0102911
0.0102872
0.0102835
0.0102799
0.0102764
0.010273
0.0102697
0.0102665
0.0102633
0.0102603
0.0102573
0.0102543
0.0102514
0.0102485
0.0102456
0.0102427
0.0102399
0.0102371
0.0102342
0.0102314
0.0102285
0.0102257
0.0102228
0.0102198
0.0102168
0.0102138
0.0102107
0.0102076
0.0102043
0.010201
0.0101976
0.010194
0.0101903
0.0101864
0.0101824
0.0101781
0.0101736
0.0101688
0.0101636
0.010158
0.010152
0.0101455
0.0101383
0.0101303
0.0101214
0.0101113
0.0100999
0.0100867
0.0100712
0.0100529
0.0100308
0.0100038
0.00997038
0.0099289
0.00987793
0.00981688
0.00974841
0.00969036
0.00968373
0.00973251
0.00981643
0.00991354
0.010002
0.0100713
0.0101224
0.010159
0.0101847
0.0102026
0.0102149
0.0102234
0.0102291
0.0102328
0.0102351
0.0102363
0.0102367
0.0102365
0.010236
0.0102344
0.0102262
0.0107397
0.0107382
0.0107394
0.0107418
0.0107451
0.0107494
0.0107546
0.0107606
0.0107673
0.0107746
0.0107824
0.0107904
0.0107983
0.0108059
0.0108127
0.0108184
0.0108227
0.0108249
0.0108249
0.0108222
0.0108166
0.010808
0.0107964
0.0107821
0.0107653
0.0107464
0.0107258
0.010704
0.0106814
0.0106584
0.0106355
0.0106129
0.0105908
0.0105695
0.0105491
0.0105296
0.0105112
0.0104938
0.0104775
0.0104621
0.0104478
0.0104344
0.0104219
0.0104102
0.0103993
0.0103891
0.0103796
0.0103707
0.0103625
0.0103547
0.0103475
0.0103407
0.0103343
0.0103283
0.0103227
0.0103173
0.0103123
0.0103075
0.0103029
0.0102986
0.0102944
0.0102905
0.0102866
0.010283
0.0102794
0.010276
0.0102726
0.0102694
0.0102662
0.0102631
0.0102601
0.0102571
0.0102541
0.0102512
0.0102484
0.0102455
0.0102427
0.0102399
0.010237
0.0102342
0.0102314
0.0102286
0.0102257
0.0102228
0.0102199
0.010217
0.010214
0.0102109
0.0102078
0.0102046
0.0102013
0.0101979
0.0101944
0.0101907
0.0101869
0.010183
0.0101788
0.0101744
0.0101697
0.0101647
0.0101593
0.0101535
0.0101473
0.0101404
0.0101329
0.0101245
0.0101152
0.0101047
0.0100928
0.0100791
0.0100632
0.0100446
0.0100228
0.0099971
0.00996712
0.00993303
0.00989614
0.00986039
0.00983607
0.00983997
0.00987501
0.00993118
0.00999164
0.0100475
0.0100953
0.0101335
0.0101627
0.0101845
0.0102004
0.010212
0.0102203
0.0102261
0.0102301
0.0102327
0.0102342
0.0102348
0.0102348
0.0102345
0.010233
0.010225
0.0107341
0.010732
0.0107331
0.0107355
0.010739
0.0107434
0.0107489
0.0107554
0.0107626
0.0107706
0.0107791
0.0107879
0.0107968
0.0108053
0.0108132
0.01082
0.0108252
0.0108284
0.010829
0.0108266
0.010821
0.0108121
0.0107999
0.0107847
0.0107667
0.0107465
0.0107246
0.0107015
0.0106777
0.0106537
0.0106298
0.0106065
0.010584
0.0105623
0.0105417
0.0105223
0.010504
0.0104868
0.0104707
0.0104557
0.0104418
0.0104287
0.0104166
0.0104053
0.0103948
0.010385
0.0103759
0.0103673
0.0103594
0.0103519
0.0103449
0.0103384
0.0103322
0.0103264
0.010321
0.0103158
0.0103109
0.0103063
0.0103018
0.0102976
0.0102936
0.0102897
0.0102859
0.0102823
0.0102789
0.0102755
0.0102722
0.010269
0.0102659
0.0102628
0.0102598
0.0102569
0.010254
0.0102511
0.0102482
0.0102454
0.0102426
0.0102398
0.010237
0.0102342
0.0102314
0.0102286
0.0102258
0.010223
0.0102201
0.0102172
0.0102142
0.0102112
0.0102081
0.0102049
0.0102017
0.0101984
0.0101949
0.0101914
0.0101877
0.0101838
0.0101798
0.0101755
0.010171
0.0101662
0.0101611
0.0101556
0.0101497
0.0101433
0.0101364
0.0101287
0.0101203
0.0101109
0.0101004
0.0100886
0.0100753
0.0100603
0.0100433
0.0100243
0.0100034
0.00998142
0.00995994
0.00994208
0.00993345
0.00994124
0.00996679
0.0100054
0.0100469
0.0100843
0.0101177
0.010146
0.0101689
0.0101868
0.0102005
0.0102109
0.0102186
0.0102242
0.0102282
0.0102309
0.0102325
0.0102333
0.0102335
0.0102334
0.0102321
0.0102246
0.0107275
0.0107246
0.0107256
0.0107281
0.0107317
0.0107364
0.0107423
0.0107492
0.0107571
0.0107658
0.0107751
0.0107849
0.0107949
0.0108047
0.0108139
0.010822
0.0108284
0.0108326
0.010834
0.0108321
0.0108266
0.0108172
0.0108042
0.0107877
0.0107683
0.0107465
0.0107229
0.0106982
0.0106729
0.0106477
0.0106228
0.0105987
0.0105756
0.0105537
0.0105329
0.0105135
0.0104954
0.0104785
0.0104628
0.0104482
0.0104347
0.0104221
0.0104105
0.0103996
0.0103896
0.0103802
0.0103715
0.0103633
0.0103557
0.0103486
0.010342
0.0103357
0.0103298
0.0103243
0.010319
0.010314
0.0103093
0.0103048
0.0103006
0.0102965
0.0102925
0.0102888
0.0102851
0.0102816
0.0102782
0.0102749
0.0102717
0.0102686
0.0102655
0.0102625
0.0102596
0.0102566
0.0102538
0.0102509
0.0102481
0.0102453
0.0102426
0.0102398
0.010237
0.0102343
0.0102315
0.0102287
0.0102259
0.0102231
0.0102203
0.0102174
0.0102145
0.0102115
0.0102085
0.0102054
0.0102023
0.010199
0.0101957
0.0101922
0.0101886
0.0101849
0.010181
0.0101769
0.0101726
0.0101681
0.0101633
0.0101582
0.0101527
0.0101468
0.0101405
0.0101336
0.0101261
0.010118
0.010109
0.0100991
0.0100883
0.0100765
0.0100637
0.01005
0.0100359
0.0100222
0.0100103
0.0100022
0.010001
0.0100099
0.010029
0.010056
0.0100859
0.0101131
0.0101371
0.0101581
0.0101759
0.0101905
0.010202
0.0102111
0.010218
0.0102232
0.010227
0.0102297
0.0102314
0.0102324
0.0102327
0.0102327
0.0102316
0.0102248
0.0107199
0.010716
0.0107169
0.0107195
0.0107233
0.0107282
0.0107345
0.0107419
0.0107505
0.01076
0.0107704
0.0107813
0.0107925
0.0108037
0.0108144
0.0108241
0.010832
0.0108375
0.0108399
0.0108386
0.010833
0.0108231
0.010809
0.010791
0.0107698
0.010746
0.0107204
0.0106937
0.0106668
0.0106401
0.0106141
0.0105892
0.0105655
0.0105432
0.0105224
0.0105031
0.0104853
0.0104688
0.0104535
0.0104395
0.0104265
0.0104145
0.0104034
0.0103931
0.0103836
0.0103747
0.0103665
0.0103588
0.0103516
0.0103449
0.0103386
0.0103327
0.0103271
0.0103218
0.0103168
0.010312
0.0103075
0.0103032
0.0102991
0.0102952
0.0102914
0.0102878
0.0102842
0.0102808
0.0102775
0.0102743
0.0102712
0.0102681
0.0102651
0.0102621
0.0102592
0.0102564
0.0102536
0.0102508
0.010248
0.0102452
0.0102425
0.0102398
0.0102371
0.0102343
0.0102316
0.0102289
0.0102261
0.0102234
0.0102206
0.0102177
0.0102149
0.010212
0.010209
0.010206
0.0102029
0.0101998
0.0101965
0.0101932
0.0101897
0.0101862
0.0101825
0.0101786
0.0101745
0.0101703
0.0101658
0.0101611
0.0101561
0.0101508
0.0101451
0.010139
0.0101325
0.0101255
0.010118
0.01011
0.0101014
0.0100923
0.0100829
0.0100734
0.0100642
0.0100561
0.01005
0.0100473
0.0100496
0.0100582
0.010073
0.0100926
0.0101142
0.010135
0.0101532
0.0101692
0.010183
0.0101948
0.0102044
0.0102122
0.0102183
0.010223
0.0102266
0.0102292
0.0102309
0.0102319
0.0102323
0.0102324
0.0102315
0.0102257
0.0107111
0.0107061
0.0107069
0.0107096
0.0107134
0.0107186
0.0107253
0.0107332
0.0107425
0.010753
0.0107645
0.0107767
0.0107894
0.0108021
0.0108145
0.010826
0.0108357
0.0108428
0.0108464
0.0108458
0.0108402
0.0108296
0.0108141
0.0107942
0.0107707
0.0107445
0.0107165
0.0106876
0.0106587
0.0106304
0.0106032
0.0105774
0.0105532
0.0105308
0.01051
0.010491
0.0104735
0.0104576
0.010443
0.0104295
0.0104172
0.0104059
0.0103955
0.0103858
0.0103769
0.0103686
0.0103609
0.0103538
0.010347
0.0103408
0.0103348
0.0103293
0.010324
0.010319
0.0103143
0.0103098
0.0103056
0.0103015
0.0102975
0.0102938
0.0102901
0.0102866
0.0102832
0.0102799
0.0102767
0.0102736
0.0102706
0.0102676
0.0102646
0.0102617
0.0102589
0.0102561
0.0102533
0.0102506
0.0102479
0.0102452
0.0102425
0.0102398
0.0102371
0.0102344
0.0102317
0.010229
0.0102263
0.0102236
0.0102209
0.0102181
0.0102153
0.0102125
0.0102096
0.0102067
0.0102037
0.0102006
0.0101975
0.0101943
0.010191
0.0101876
0.0101841
0.0101805
0.0101767
0.0101727
0.0101686
0.0101643
0.0101598
0.010155
0.01015
0.0101447
0.0101392
0.0101333
0.0101272
0.0101207
0.0101141
0.0101073
0.0101006
0.0100942
0.0100885
0.010084
0.0100815
0.0100817
0.0100855
0.0100934
0.0101052
0.0101199
0.0101359
0.0101518
0.0101662
0.0101789
0.0101898
0.0101993
0.0102073
0.0102139
0.0102192
0.0102234
0.0102267
0.0102291
0.0102308
0.0102318
0.0102324
0.0102325
0.0102319
0.0102271
0.010701
0.0106948
0.0106954
0.0106981
0.0107021
0.0107075
0.0107144
0.010723
0.0107329
0.0107443
0.010757
0.0107707
0.0107851
0.0107996
0.0108138
0.0108273
0.0108391
0.0108482
0.0108533
0.0108534
0.0108479
0.0108364
0.0108192
0.0107969
0.0107706
0.0107414
0.0107106
0.0106792
0.0106481
0.0106181
0.0105896
0.010563
0.0105385
0.0105159
0.0104954
0.0104769
0.0104601
0.0104448
0.010431
0.0104183
0.0104069
0.0103963
0.0103867
0.0103778
0.0103696
0.0103619
0.0103548
0.0103482
0.010342
0.0103362
0.0103308
0.0103256
0.0103207
0.0103161
0.0103116
0.0103074
0.0103034
0.0102995
0.0102958
0.0102922
0.0102888
0.0102854
0.0102821
0.010279
0.0102759
0.0102728
0.0102699
0.010267
0.0102641
0.0102613
0.0102585
0.0102558
0.0102531
0.0102504
0.0102477
0.0102451
0.0102424
0.0102398
0.0102371
0.0102345
0.0102319
0.0102292
0.0102266
0.0102239
0.0102212
0.0102185
0.0102158
0.010213
0.0102102
0.0102074
0.0102045
0.0102016
0.0101986
0.0101955
0.0101924
0.0101892
0.0101859
0.0101825
0.010179
0.0101753
0.0101716
0.0101677
0.0101637
0.0101595
0.0101551
0.0101506
0.0101459
0.0101411
0.0101361
0.0101311
0.010126
0.0101211
0.0101165
0.0101124
0.0101091
0.0101071
0.0101067
0.0101084
0.0101127
0.0101198
0.0101294
0.0101408
0.0101531
0.0101653
0.0101768
0.0101871
0.0101961
0.0102038
0.0102104
0.010216
0.0102206
0.0102243
0.0102273
0.0102295
0.0102312
0.0102322
0.0102328
0.0102331
0.0102326
0.010229
0.0106893
0.0106819
0.0106824
0.0106851
0.0106891
0.0106946
0.0107018
0.0107108
0.0107214
0.0107337
0.0107476
0.0107628
0.010779
0.0107957
0.0108121
0.0108276
0.0108416
0.010853
0.01086
0.0108612
0.0108556
0.0108429
0.0108235
0.0107983
0.0107686
0.010736
0.0107018
0.0106675
0.0106341
0.0106023
0.0105727
0.0105454
0.0105207
0.0104984
0.0104784
0.0104606
0.0104447
0.0104303
0.0104175
0.0104059
0.0103954
0.0103858
0.010377
0.010369
0.0103615
0.0103547
0.0103482
0.0103423
0.0103366
0.0103313
0.0103264
0.0103216
0.0103171
0.0103129
0.0103088
0.0103048
0.0103011
0.0102975
0.010294
0.0102906
0.0102873
0.0102841
0.010281
0.0102779
0.0102749
0.010272
0.0102692
0.0102664
0.0102636
0.0102608
0.0102581
0.0102555
0.0102528
0.0102502
0.0102475
0.0102449
0.0102424
0.0102398
0.0102372
0.0102346
0.010232
0.0102294
0.0102268
0.0102242
0.0102216
0.010219
0.0102163
0.0102136
0.0102109
0.0102082
0.0102054
0.0102026
0.0101997
0.0101968
0.0101939
0.0101908
0.0101878
0.0101846
0.0101814
0.0101781
0.0101747
0.0101712
0.0101676
0.0101639
0.0101602
0.0101564
0.0101525
0.0101486
0.0101447
0.0101408
0.0101371
0.0101337
0.0101307
0.0101282
0.0101266
0.0101261
0.010127
0.0101295
0.0101339
0.0101402
0.0101481
0.0101572
0.0101669
0.0101765
0.0101857
0.0101941
0.0102015
0.010208
0.0102136
0.0102184
0.0102223
0.0102256
0.0102283
0.0102303
0.0102319
0.0102329
0.0102336
0.0102339
0.0102337
0.0102312
0.0106759
0.0106673
0.0106676
0.0106702
0.0106742
0.0106798
0.0106871
0.0106964
0.0107076
0.0107207
0.0107356
0.0107523
0.0107704
0.0107894
0.0108085
0.0108265
0.0108427
0.0108567
0.010866
0.0108684
0.0108627
0.0108486
0.0108264
0.0107975
0.0107637
0.010727
0.010689
0.0106515
0.0106156
0.0105822
0.0105516
0.010524
0.0104995
0.0104777
0.0104587
0.010442
0.0104272
0.0104141
0.0104025
0.0103921
0.0103827
0.0103743
0.0103665
0.0103594
0.0103529
0.0103468
0.0103412
0.0103359
0.0103309
0.0103262
0.0103217
0.0103174
0.0103134
0.0103095
0.0103057
0.0103021
0.0102986
0.0102953
0.010292
0.0102888
0.0102857
0.0102827
0.0102797
0.0102768
0.010274
0.0102712
0.0102684
0.0102657
0.010263
0.0102603
0.0102577
0.0102551
0.0102525
0.0102499
0.0102474
0.0102448
0.0102423
0.0102398
0.0102372
0.0102347
0.0102322
0.0102296
0.0102271
0.0102246
0.010222
0.0102194
0.0102169
0.0102143
0.0102116
0.010209
0.0102063
0.0102037
0.0102009
0.0101982
0.0101954
0.0101926
0.0101897
0.0101868
0.0101838
0.0101808
0.0101778
0.0101747
0.0101715
0.0101684
0.0101652
0.010162
0.0101588
0.0101557
0.0101527
0.0101499
0.0101472
0.010145
0.0101431
0.0101419
0.0101415
0.010142
0.0101436
0.0101465
0.0101507
0.0101563
0.0101629
0.0101704
0.0101782
0.0101859
0.0101934
0.0102002
0.0102064
0.0102119
0.0102167
0.0102208
0.0102243
0.0102272
0.0102296
0.0102315
0.0102329
0.010234
0.0102347
0.0102351
0.0102351
0.0102338
0.0106607
0.0106509
0.0106509
0.0106535
0.0106573
0.0106628
0.0106701
0.0106795
0.010691
0.0107047
0.0107206
0.0107386
0.0107586
0.01078
0.010802
0.0108231
0.0108419
0.0108585
0.0108705
0.0108744
0.0108685
0.0108524
0.0108268
0.0107934
0.0107546
0.010713
0.0106708
0.0106299
0.0105915
0.0105566
0.0105255
0.0104981
0.0104742
0.0104536
0.010436
0.0104208
0.0104076
0.0103961
0.010386
0.010377
0.0103691
0.0103618
0.0103553
0.0103493
0.0103437
0.0103385
0.0103337
0.0103291
0.0103248
0.0103207
0.0103168
0.010313
0.0103094
0.0103059
0.0103025
0.0102992
0.0102961
0.010293
0.0102899
0.010287
0.0102841
0.0102812
0.0102784
0.0102757
0.0102729
0.0102703
0.0102676
0.010265
0.0102624
0.0102598
0.0102573
0.0102547
0.0102522
0.0102497
0.0102472
0.0102447
0.0102422
0.0102398
0.0102373
0.0102348
0.0102323
0.0102299
0.0102274
0.0102249
0.0102224
0.0102199
0.0102174
0.0102149
0.0102124
0.0102099
0.0102073
0.0102047
0.0102022
0.0101996
0.0101969
0.0101943
0.0101916
0.010189
0.0101863
0.0101836
0.0101808
0.0101781
0.0101754
0.0101727
0.01017
0.0101674
0.0101649
0.0101625
0.0101602
0.0101582
0.0101564
0.010155
0.0101541
0.0101538
0.0101541
0.0101553
0.0101573
0.0101603
0.0101643
0.0101692
0.0101749
0.0101811
0.0101875
0.0101939
0.0102
0.0102057
0.0102109
0.0102156
0.0102197
0.0102233
0.0102263
0.0102289
0.0102311
0.0102328
0.0102342
0.0102353
0.0102361
0.0102366
0.0102368
0.0102365
0.0106433
0.0106326
0.0106324
0.0106347
0.0106383
0.0106435
0.0106507
0.0106598
0.0106712
0.0106852
0.0107018
0.0107209
0.0107426
0.0107664
0.0107914
0.0108161
0.0108383
0.0108574
0.0108724
0.0108782
0.010872
0.0108533
0.0108232
0.0107843
0.0107396
0.0106923
0.0106454
0.010601
0.0105605
0.0105246
0.0104935
0.0104669
0.0104444
0.0104257
0.0104101
0.0103969
0.0103858
0.0103762
0.010368
0.0103608
0.0103543
0.0103486
0.0103433
0.0103385
0.010334
0.0103298
0.0103259
0.0103221
0.0103185
0.010315
0.0103117
0.0103084
0.0103053
0.0103022
0.0102992
0.0102963
0.0102934
0.0102906
0.0102878
0.0102851
0.0102824
0.0102797
0.0102771
0.0102745
0.0102719
0.0102693
0.0102668
0.0102643
0.0102618
0.0102593
0.0102568
0.0102543
0.0102519
0.0102495
0.010247
0.0102446
0.0102422
0.0102397
0.0102373
0.0102349
0.0102325
0.0102301
0.0102277
0.0102253
0.0102228
0.0102204
0.010218
0.0102156
0.0102131
0.0102107
0.0102083
0.0102058
0.0102034
0.0102009
0.0101985
0.010196
0.0101936
0.0101911
0.0101887
0.0101863
0.0101839
0.0101815
0.0101792
0.0101769
0.0101747
0.0101726
0.0101706
0.0101688
0.0101671
0.0101658
0.0101647
0.010164
0.0101637
0.010164
0.0101649
0.0101664
0.0101687
0.0101717
0.0101754
0.0101798
0.0101847
0.0101899
0.0101953
0.0102007
0.0102058
0.0102106
0.0102151
0.0102191
0.0102226
0.0102257
0.0102284
0.0102308
0.0102327
0.0102344
0.0102357
0.0102368
0.0102376
0.0102382
0.0102386
0.0102393
0.0106238
0.0106124
0.0106119
0.0106139
0.0106171
0.0106219
0.0106285
0.0106371
0.0106481
0.0106618
0.0106785
0.0106984
0.0107214
0.0107475
0.0107756
0.0108042
0.0108306
0.0108526
0.0108706
0.0108786
0.0108718
0.0108497
0.010814
0.0107682
0.0107165
0.0106629
0.010611
0.0105632
0.010521
0.0104848
0.0104546
0.0104298
0.0104098
0.0103937
0.0103808
0.0103703
0.0103617
0.0103546
0.0103485
0.0103433
0.0103387
0.0103346
0.0103308
0.0103273
0.010324
0.0103208
0.0103178
0.0103148
0.010312
0.0103092
0.0103064
0.0103037
0.0103011
0.0102984
0.0102958
0.0102933
0.0102907
0.0102882
0.0102856
0.0102831
0.0102806
0.0102782
0.0102757
0.0102733
0.0102708
0.0102684
0.010266
0.0102635
0.0102611
0.0102587
0.0102563
0.010254
0.0102516
0.0102492
0.0102468
0.0102445
0.0102421
0.0102397
0.0102374
0.010235
0.0102327
0.0102303
0.010228
0.0102256
0.0102233
0.0102209
0.0102186
0.0102162
0.0102139
0.0102116
0.0102093
0.0102069
0.0102046
0.0102023
0.0102
0.0101978
0.0101955
0.0101933
0.0101911
0.0101889
0.0101868
0.0101847
0.0101828
0.0101809
0.0101791
0.0101774
0.0101759
0.0101746
0.0101735
0.0101726
0.0101721
0.0101719
0.0101722
0.0101729
0.0101741
0.0101759
0.0101783
0.0101812
0.0101847
0.0101886
0.0101929
0.0101974
0.010202
0.0102066
0.0102109
0.0102151
0.0102189
0.0102223
0.0102254
0.0102282
0.0102306
0.0102327
0.0102345
0.0102361
0.0102374
0.0102384
0.0102393
0.01024
0.0102406
0.0102422
0.0106021
0.0105903
0.0105896
0.0105911
0.0105937
0.0105977
0.0106034
0.0106112
0.0106212
0.010634
0.0106502
0.0106702
0.0106941
0.010722
0.0107532
0.010786
0.010817
0.0108427
0.010864
0.0108742
0.0108665
0.01084
0.0107972
0.010743
0.010683
0.0106224
0.0105654
0.0105147
0.0104716
0.0104363
0.0104082
0.0103864
0.0103699
0.0103574
0.010348
0.0103409
0.0103355
0.0103312
0.0103277
0.0103248
0.0103223
0.01032
0.0103178
0.0103157
0.0103136
0.0103115
0.0103095
0.0103074
0.0103053
0.0103032
0.0103011
0.010299
0.0102968
0.0102946
0.0102924
0.0102902
0.010288
0.0102857
0.0102834
0.0102812
0.0102789
0.0102766
0.0102743
0.010272
0.0102697
0.0102674
0.0102651
0.0102628
0.0102605
0.0102582
0.0102559
0.0102536
0.0102512
0.0102489
0.0102466
0.0102443
0.010242
0.0102397
0.0102374
0.0102351
0.0102328
0.0102305
0.0102282
0.010226
0.0102237
0.0102214
0.0102192
0.0102169
0.0102147
0.0102124
0.0102102
0.010208
0.0102058
0.0102037
0.0102015
0.0101994
0.0101974
0.0101954
0.0101934
0.0101915
0.0101896
0.0101878
0.0101862
0.0101846
0.0101832
0.0101819
0.0101808
0.0101799
0.0101792
0.0101788
0.0101787
0.0101789
0.0101796
0.0101806
0.0101821
0.010184
0.0101864
0.0101892
0.0101924
0.010196
0.0101998
0.0102037
0.0102077
0.0102117
0.0102154
0.010219
0.0102223
0.0102254
0.0102281
0.0102306
0.0102327
0.0102347
0.0102363
0.0102378
0.0102391
0.0102402
0.0102411
0.0102418
0.0102426
0.0102451
0.0105781
0.0105665
0.0105654
0.0105665
0.0105682
0.0105712
0.0105756
0.0105819
0.0105904
0.0106016
0.0106164
0.0106355
0.0106595
0.0106888
0.0107229
0.01076
0.0107963
0.0108267
0.0108512
0.0108638
0.0108546
0.0108222
0.0107705
0.0107061
0.0106365
0.0105684
0.0105065
0.0104537
0.010411
0.0103781
0.0103537
0.0103364
0.0103247
0.0103169
0.010312
0.010309
0.0103073
0.0103064
0.0103059
0.0103055
0.0103052
0.0103049
0.0103044
0.0103038
0.010303
0.0103021
0.0103011
0.0103
0.0102987
0.0102973
0.0102958
0.0102942
0.0102925
0.0102908
0.010289
0.0102871
0.0102852
0.0102833
0.0102813
0.0102792
0.0102771
0.0102751
0.0102729
0.0102708
0.0102686
0.0102665
0.0102643
0.0102621
0.0102598
0.0102576
0.0102554
0.0102532
0.0102509
0.0102487
0.0102464
0.0102442
0.0102419
0.0102397
0.0102374
0.0102352
0.010233
0.0102307
0.0102285
0.0102263
0.0102241
0.0102219
0.0102197
0.0102175
0.0102154
0.0102133
0.0102111
0.0102091
0.010207
0.010205
0.010203
0.0102011
0.0101992
0.0101973
0.0101956
0.0101939
0.0101923
0.0101908
0.0101894
0.0101881
0.010187
0.010186
0.0101853
0.0101847
0.0101844
0.0101843
0.0101846
0.0101851
0.010186
0.0101873
0.0101889
0.0101909
0.0101933
0.010196
0.010199
0.0102022
0.0102057
0.0102092
0.0102127
0.0102161
0.0102195
0.0102226
0.0102255
0.0102282
0.0102307
0.0102329
0.0102349
0.0102366
0.0102382
0.0102396
0.0102409
0.010242
0.0102429
0.0102437
0.0102447
0.0102479
0.010552
0.0105412
0.0105398
0.0105401
0.0105408
0.0105424
0.0105451
0.0105494
0.0105556
0.0105644
0.0105768
0.010594
0.010617
0.0106467
0.0106832
0.0107247
0.0107669
0.010803
0.0108313
0.010846
0.0108345
0.0107945
0.0107315
0.0106549
0.0105746
0.0104986
0.0104324
0.0103789
0.0103384
0.0103098
0.0102911
0.01028
0.0102744
0.0102724
0.010273
0.0102749
0.0102776
0.0102804
0.0102832
0.0102857
0.0102878
0.0102895
0.0102909
0.0102918
0.0102924
0.0102927
0.0102927
0.0102925
0.010292
0.0102913
0.0102905
0.0102895
0.0102883
0.010287
0.0102856
0.0102841
0.0102825
0.0102808
0.0102791
0.0102773
0.0102754
0.0102735
0.0102716
0.0102696
0.0102676
0.0102655
0.0102634
0.0102613
0.0102592
0.0102571
0.0102549
0.0102528
0.0102506
0.0102484
0.0102462
0.010244
0.0102419
0.0102397
0.0102375
0.0102353
0.0102331
0.0102309
0.0102288
0.0102266
0.0102245
0.0102224
0.0102203
0.0102182
0.0102161
0.0102141
0.010212
0.0102101
0.0102081
0.0102062
0.0102044
0.0102026
0.0102009
0.0101992
0.0101976
0.0101962
0.0101948
0.0101935
0.0101924
0.0101914
0.0101905
0.0101898
0.0101894
0.0101891
0.0101891
0.0101893
0.0101898
0.0101906
0.0101917
0.0101931
0.0101948
0.0101969
0.0101992
0.0102018
0.0102046
0.0102076
0.0102107
0.0102138
0.010217
0.0102201
0.010223
0.0102258
0.0102284
0.0102308
0.0102331
0.0102351
0.0102369
0.0102386
0.0102401
0.0102414
0.0102426
0.0102438
0.0102448
0.0102456
0.0102467
0.0102506
0.010524
0.0105147
0.010513
0.0105125
0.0105119
0.0105118
0.0105123
0.0105139
0.010517
0.0105225
0.0105314
0.0105454
0.0105661
0.0105951
0.0106331
0.0106789
0.0107275
0.0107705
0.0108035
0.0108201
0.0108052
0.0107551
0.010678
0.010587
0.0104947
0.010411
0.0103419
0.0102896
0.0102537
0.0102319
0.0102209
0.0102176
0.0102196
0.0102247
0.0102317
0.0102392
0.0102467
0.0102538
0.0102601
0.0102656
0.0102703
0.0102742
0.0102774
0.0102799
0.0102819
0.0102834
0.0102845
0.0102852
0.0102855
0.0102855
0.0102853
0.0102848
0.0102842
0.0102833
0.0102823
0.0102811
0.0102799
0.0102785
0.010277
0.0102754
0.0102737
0.010272
0.0102702
0.0102684
0.0102665
0.0102646
0.0102626
0.0102606
0.0102586
0.0102565
0.0102545
0.0102524
0.0102503
0.0102482
0.010246
0.0102439
0.0102418
0.0102396
0.0102375
0.0102354
0.0102333
0.0102311
0.010229
0.0102269
0.0102249
0.0102228
0.0102208
0.0102188
0.0102168
0.0102148
0.0102129
0.010211
0.0102092
0.0102074
0.0102057
0.0102041
0.0102025
0.010201
0.0101996
0.0101983
0.0101971
0.010196
0.0101951
0.0101943
0.0101937
0.0101933
0.0101931
0.0101931
0.0101933
0.0101937
0.0101944
0.0101954
0.0101966
0.0101982
0.0102
0.010202
0.0102043
0.0102068
0.0102094
0.0102122
0.010215
0.0102179
0.0102208
0.0102235
0.0102262
0.0102287
0.0102311
0.0102333
0.0102353
0.0102372
0.0102389
0.0102404
0.0102419
0.0102432
0.0102444