/*--------------------------------*- C++ -*----------------------------------*\
| =========                 |                                                 |
| \\      /  F ield         | OpenFOAM: The Open Source CFD Toolbox           |
|  \\    /   O peration     | Version:  2306                                  |
|   \\  /    A nd           | Website:  www.openfoam.com                      |
|    \\/     M anipulation  |                                                 |
\*---------------------------------------------------------------------------*/
FoamFile
{
    version     2.0;
    format      ascii;
    arch        "LSB;label=32;scalar=64";
    class       surfaceScalarField;
    location    "10";
    object      phi;
}
// * * * * * * * * * * * * * * * * * * * * * * * * * * * * * * * * * * * * * //

dimensions      [0 3 -1 0 0 0 0];

oriented        oriented;

internalField   nonuniform List<scalar> 
8788
(
-7.12778e-08
7.12779e-08
-1.43416e-07
7.21384e-08
-1.97497e-07
5.40814e-08
-2.21741e-07
2.42437e-08
-2.05793e-07
-1.59478e-08
-1.40572e-07
-6.52213e-08
-1.7904e-08
-1.22668e-07
1.69701e-07
-1.87605e-07
4.29206e-07
-2.59505e-07
7.67016e-07
-3.3781e-07
1.18874e-06
-4.21726e-07
1.69883e-06
-5.10091e-07
2.30011e-06
-6.01274e-07
2.99324e-06
-6.93133e-07
3.77626e-06
-7.83025e-07
4.64415e-06
-8.67887e-07
5.58853e-06
-9.44383e-07
6.59766e-06
-1.00913e-06
7.65661e-06
-1.05895e-06
8.74779e-06
-1.09118e-06
9.8517e-06
-1.1039e-06
1.09479e-05
-1.09617e-06
1.2016e-05
-1.06811e-06
1.30369e-05
-1.02088e-06
1.39935e-05
-9.56595e-07
1.48716e-05
-8.7812e-07
1.56604e-05
-7.88799e-07
1.63526e-05
-6.92205e-07
1.69445e-05
-5.91885e-07
1.74356e-05
-4.91146e-07
1.78285e-05
-3.92899e-07
1.81281e-05
-2.99557e-07
1.83411e-05
-2.12994e-07
1.84756e-05
-1.34536e-07
1.85406e-05
-6.5006e-08
1.85454e-05
-4.79349e-09
1.84991e-05
4.63213e-08
1.84105e-05
8.85532e-08
1.8288e-05
1.22539e-07
1.8139e-05
1.48964e-07
1.79704e-05
1.68611e-07
1.77881e-05
1.823e-07
1.75972e-05
1.90854e-07
1.74022e-05
1.95066e-07
1.72065e-05
1.95678e-07
1.70131e-05
1.93372e-07
1.68244e-05
1.88754e-07
1.6642e-05
1.82359e-07
1.64674e-05
1.74647e-07
1.63014e-05
1.66009e-07
1.61446e-05
1.5677e-07
1.59974e-05
1.47196e-07
1.58599e-05
1.37502e-07
1.5732e-05
1.27856e-07
1.56137e-05
1.18389e-07
1.55045e-05
1.09198e-07
1.54041e-05
1.0035e-07
1.53122e-05
9.18917e-08
1.52284e-05
8.38512e-08
1.51521e-05
7.62405e-08
1.50831e-05
6.90598e-08
1.50208e-05
6.23003e-08
1.49648e-05
5.59455e-08
1.49148e-05
4.99735e-08
1.48705e-05
4.43583e-08
1.48314e-05
3.90707e-08
1.47973e-05
3.40792e-08
1.4768e-05
2.93506e-08
1.47431e-05
2.48506e-08
1.47226e-05
2.0544e-08
1.47062e-05
1.63947e-08
1.46938e-05
1.23663e-08
1.46854e-05
8.42178e-09
1.46809e-05
4.52526e-09
1.46803e-05
6.24804e-10
1.46835e-05
-3.28539e-09
1.46908e-05
-7.27502e-09
1.47022e-05
-1.13723e-08
1.47178e-05
-1.56258e-08
1.47379e-05
-2.0087e-08
1.47627e-05
-2.4811e-08
1.47926e-05
-2.98576e-08
1.48279e-05
-3.52924e-08
1.4869e-05
-4.11878e-08
1.49167e-05
-4.76248e-08
1.49714e-05
-5.46943e-08
1.50339e-05
-6.24994e-08
1.5105e-05
-7.11578e-08
1.51858e-05
-8.08046e-08
1.52774e-05
-9.1596e-08
1.53811e-05
-1.03714e-07
1.54985e-05
-1.17371e-07
1.56313e-05
-1.32816e-07
1.57817e-05
-1.50347e-07
1.5952e-05
-1.70315e-07
1.61451e-05
-1.93142e-07
1.63645e-05
-2.19337e-07
1.6614e-05
-2.49514e-07
1.68984e-05
-2.84425e-07
1.72234e-05
-3.24993e-07
1.75958e-05
-3.7236e-07
1.80237e-05
-4.27947e-07
1.85172e-05
-4.93538e-07
1.90886e-05
-5.71385e-07
1.9753e-05
-6.64348e-07
2.0529e-05
-7.76067e-07
2.14402e-05
-9.1118e-07
2.25158e-05
-1.07558e-06
2.37925e-05
-1.2767e-06
2.53163e-05
-1.52376e-06
2.7145e-05
-1.82878e-06
2.93582e-05
-2.21318e-06
3.20915e-05
-2.73329e-06
3.56201e-05
-3.52861e-06
4.04892e-05
-4.8691e-06
4.81614e-05
-7.67215e-06
6.59313e-05
-1.77699e-05
0.000128053
-6.21213e-05
6.78163e-05
-0.000161406
1.22864e-05
-0.000213459
-4.56163e-05
-0.000218078
-0.000110597
-0.000168408
-4.61551e-05
-6.44415e-05
-2.77196e-05
-1.84355e-05
-2.00814e-05
-7.63823e-06
-1.55227e-05
-4.55867e-06
-1.23921e-05
-3.13061e-06
-1.00524e-05
-2.33963e-06
-8.18912e-06
-1.86332e-06
-6.65546e-06
-1.53366e-06
-5.37382e-06
-1.28164e-06
-4.29253e-06
-1.0813e-06
-3.37365e-06
-9.18879e-07
-2.58945e-06
-7.84192e-07
-1.9204e-06
-6.6905e-07
-1.35355e-06
-5.66855e-07
-8.80949e-07
-4.726e-07
-4.97273e-07
-3.83676e-07
-1.98259e-07
-2.99014e-07
-1.98259e-07
-7.49513e-08
1.46229e-07
-1.45089e-07
1.42276e-07
-1.96038e-07
1.05031e-07
-2.12257e-07
4.04624e-08
-1.81115e-07
-4.7089e-08
-9.16678e-08
-1.54669e-07
6.59596e-08
-2.80295e-07
3.00886e-07
-4.22531e-07
6.21575e-07
-5.80194e-07
1.03577e-06
-7.52005e-07
1.55022e-06
-9.36178e-07
2.17026e-06
-1.13013e-06
2.89926e-06
-1.33027e-06
3.73804e-06
-1.53191e-06
4.68426e-06
-1.72924e-06
5.73193e-06
-1.91556e-06
6.8711e-06
-2.08355e-06
8.08776e-06
-2.22579e-06
9.36413e-06
-2.33531e-06
1.06792e-05
-2.40625e-06
1.20097e-05
-2.43441e-06
1.33312e-05
-2.4177e-06
1.46195e-05
-2.35638e-06
1.58516e-05
-2.25302e-06
1.70073e-05
-2.11226e-06
1.80695e-05
-1.94036e-06
1.90254e-05
-1.74465e-06
1.98661e-05
-1.53294e-06
2.05872e-05
-1.313e-06
2.11881e-05
-1.09204e-06
2.16717e-05
-8.76447e-07
2.20436e-05
-6.71486e-07
2.23119e-05
-4.81258e-07
2.2486e-05
-3.08676e-07
2.25765e-05
-1.5554e-07
2.25944e-05
-2.26476e-08
2.25506e-05
9.01419e-08
2.24555e-05
1.83594e-07
2.23191e-05
2.58929e-07
2.21504e-05
3.17671e-07
2.19575e-05
3.61525e-07
2.17475e-05
3.92284e-07
2.15266e-05
4.11744e-07
2.13001e-05
4.21641e-07
2.10722e-05
4.236e-07
2.08464e-05
4.19111e-07
2.06257e-05
4.09507e-07
2.04121e-05
3.9596e-07
2.02072e-05
3.79482e-07
2.00123e-05
3.6093e-07
1.98281e-05
3.4102e-07
1.96549e-05
3.20339e-07
1.94931e-05
2.99361e-07
1.93424e-05
2.78458e-07
1.92029e-05
2.57918e-07
1.90742e-05
2.37955e-07
1.89558e-05
2.18722e-07
1.88474e-05
2.00324e-07
1.87484e-05
1.82822e-07
1.86584e-05
1.66245e-07
1.85768e-05
1.50596e-07
1.85033e-05
1.35857e-07
1.84372e-05
1.21992e-07
1.83783e-05
1.08956e-07
1.83259e-05
9.66923e-08
1.82799e-05
8.51375e-08
1.82397e-05
7.42236e-08
1.82052e-05
6.38786e-08
1.8176e-05
5.4028e-08
1.8152e-05
4.45949e-08
1.81329e-05
3.5501e-08
1.81186e-05
2.66664e-08
1.8109e-05
1.80101e-08
1.8104e-05
9.4496e-09
1.81038e-05
8.99582e-10
1.81082e-05
-7.71617e-09
1.81174e-05
-1.64876e-08
1.81315e-05
-2.55068e-08
1.81508e-05
-3.48771e-08
1.81754e-05
-4.47106e-08
1.82057e-05
-5.51281e-08
1.82421e-05
-6.6261e-08
1.82851e-05
-7.82534e-08
1.83352e-05
-9.12647e-08
1.8393e-05
-1.05473e-07
1.84594e-05
-1.21078e-07
1.85352e-05
-1.38306e-07
1.86215e-05
-1.57417e-07
1.87194e-05
-1.78707e-07
1.88303e-05
-2.0252e-07
1.89558e-05
-2.29254e-07
1.90978e-05
-2.59376e-07
1.92585e-05
-2.93434e-07
1.94402e-05
-3.32076e-07
1.9646e-05
-3.76074e-07
1.98792e-05
-4.26352e-07
2.01438e-05
-4.8402e-07
2.04448e-05
-5.50426e-07
2.07875e-05
-6.27211e-07
2.11789e-05
-7.16396e-07
2.16271e-05
-8.20479e-07
2.21417e-05
-9.42584e-07
2.27348e-05
-1.08664e-06
2.34211e-05
-1.25766e-06
2.42188e-05
-1.46209e-06
2.51511e-05
-1.70832e-06
2.62474e-05
-2.00751e-06
2.75466e-05
-2.37481e-06
2.91015e-05
-2.83154e-06
3.09871e-05
-3.40934e-06
3.33173e-05
-4.15903e-06
3.62762e-05
-5.17208e-06
4.01737e-05
-6.63082e-06
4.55564e-05
-8.91124e-06
5.34853e-05
-1.2798e-05
6.60031e-05
-2.01899e-05
8.45922e-05
-3.6359e-05
9.48772e-05
-7.24063e-05
6.19214e-05
-0.00012845
1.26842e-05
-0.000164222
-3.80351e-05
-0.000167359
-7.29149e-05
-0.000133528
-6.20145e-05
-7.53418e-05
-4.28808e-05
-3.75692e-05
-3.0121e-05
-2.0398e-05
-2.2197e-05
-1.24827e-05
-1.69681e-05
-8.35952e-06
-1.32947e-05
-6.01303e-06
-1.05786e-05
-4.57948e-06
-8.47951e-06
-3.63272e-06
-6.79866e-06
-2.96249e-06
-5.41728e-06
-2.46268e-06
-4.26173e-06
-2.07442e-06
-3.28462e-06
-1.7613e-06
-2.45484e-06
-1.49883e-06
-1.75197e-06
-1.26973e-06
-1.16269e-06
-1.06187e-06
-6.79035e-07
-8.67333e-07
-2.9805e-07
-6.79999e-07
-4.96309e-07
-7.17442e-08
2.17974e-07
-1.40731e-07
2.11263e-07
-1.87902e-07
1.52202e-07
-1.96918e-07
4.94781e-08
-1.5369e-07
-9.03167e-08
-4.57553e-08
-2.62604e-07
1.38275e-07
-4.64326e-07
4.09003e-07
-6.93258e-07
7.76365e-07
-9.47556e-07
1.24953e-06
-1.22517e-06
1.83659e-06
-1.52324e-06
2.54408e-06
-1.83762e-06
3.37634e-06
-2.16254e-06
4.33483e-06
-2.4904e-06
5.41737e-06
-2.81179e-06
6.61756e-06
-3.11575e-06
7.92431e-06
-3.3903e-06
9.32171e-06
-3.6232e-06
1.07893e-05
-3.80293e-06
1.23029e-05
-3.91977e-06
1.38352e-05
-3.96674e-06
1.53579e-05
-3.94037e-06
1.68426e-05
-3.84107e-06
1.82627e-05
-3.67311e-06
1.95945e-05
-3.44413e-06
2.08186e-05
-3.16446e-06
2.19201e-05
-2.84615e-06
2.28892e-05
-2.50199e-06
2.37208e-05
-2.14465e-06
2.44147e-05
-1.7859e-06
2.49743e-05
-1.43604e-06
2.54064e-05
-1.1036e-06
2.57203e-05
-7.95184e-07
2.59271e-05
-5.1544e-07
2.60388e-05
-2.67223e-07
2.60679e-05
-5.17744e-08
2.6027e-05
1.31071e-07
2.5928e-05
2.82585e-07
2.57821e-05
4.04778e-07
2.55997e-05
5.00135e-07
2.53898e-05
5.71432e-07
2.51605e-05
6.21582e-07
2.49187e-05
6.53494e-07
2.46704e-05
6.69975e-07
2.44203e-05
6.73655e-07
2.41725e-05
6.66936e-07
2.393e-05
6.51969e-07
2.36954e-05
6.3064e-07
2.34703e-05
6.04578e-07
2.3256e-05
5.75162e-07
2.30535e-05
5.43543e-07
2.28632e-05
5.10665e-07
2.26853e-05
4.77289e-07
2.25197e-05
4.44012e-07
2.23663e-05
4.11297e-07
2.22248e-05
3.79488e-07
2.20947e-05
3.48833e-07
2.19755e-05
3.19498e-07
2.18667e-05
2.91583e-07
2.17678e-05
2.65136e-07
2.16783e-05
2.40161e-07
2.15975e-05
2.16629e-07
2.1525e-05
1.94487e-07
2.14603e-05
1.7366e-07
2.14029e-05
1.54059e-07
2.13525e-05
1.35583e-07
2.13086e-05
1.18123e-07
2.12709e-05
1.01566e-07
2.12392e-05
8.57905e-08
2.12131e-05
7.06756e-08
2.11925e-05
5.60955e-08
2.11772e-05
4.19227e-08
2.11672e-05
2.80273e-08
2.11624e-05
1.42776e-08
2.11627e-05
5.39216e-10
2.11683e-05
-1.33187e-08
2.11793e-05
-2.74338e-08
2.11957e-05
-4.19589e-08
2.12179e-05
-5.70603e-08
2.12461e-05
-7.29169e-08
2.12807e-05
-8.97224e-08
2.13221e-05
-1.07687e-07
2.13709e-05
-1.27043e-07
2.14277e-05
-1.48044e-07
2.14932e-05
-1.70977e-07
2.15683e-05
-1.96161e-07
2.1654e-05
-2.23961e-07
2.17513e-05
-2.54789e-07
2.18617e-05
-2.89121e-07
2.19867e-05
-3.27503e-07
2.2128e-05
-3.70573e-07
2.22877e-05
-4.19073e-07
2.24682e-05
-4.73874e-07
2.26721e-05
-5.36006e-07
2.29027e-05
-6.06691e-07
2.31638e-05
-6.8739e-07
2.34596e-05
-7.79858e-07
2.37954e-05
-8.86221e-07
2.41773e-05
-1.00907e-06
2.46124e-05
-1.15157e-06
2.51096e-05
-1.31768e-06
2.56794e-05
-1.5123e-06
2.63344e-05
-1.74166e-06
2.70904e-05
-2.0137e-06
2.79671e-05
-2.33874e-06
2.89892e-05
-2.73041e-06
3.01888e-05
-3.20716e-06
3.16087e-05
-3.79466e-06
3.33071e-05
-4.52995e-06
3.53668e-05
-5.46909e-06
3.79091e-05
-6.70135e-06
4.11143e-05
-8.37725e-06
4.52458e-05
-1.07623e-05
5.06682e-05
-1.43337e-05
5.78219e-05
-1.99517e-05
6.68411e-05
-2.92091e-05
7.54859e-05
-4.50038e-05
7.40853e-05
-7.10057e-05
5.04813e-05
-0.000104846
1.36838e-05
-0.000127425
-2.41051e-05
-0.00012957
-4.90696e-05
-0.000108564
-5.06403e-05
-7.37711e-05
-4.17059e-05
-4.65036e-05
-3.2375e-05
-2.97289e-05
-2.50251e-05
-1.98325e-05
-1.95309e-05
-1.38538e-05
-1.54219e-05
-1.0122e-05
-1.22965e-05
-7.70487e-06
-9.85973e-06
-6.06948e-06
-7.9096e-06
-4.91262e-06
-6.3126e-06
-4.05968e-06
-4.98107e-06
-3.40595e-06
-3.85704e-06
-2.88533e-06
-2.90194e-06
-2.45393e-06
-2.09007e-06
-2.0816e-06
-1.40435e-06
-1.7476e-06
-8.33466e-07
-1.43821e-06
-3.68729e-07
-1.14474e-06
-8.65038e-07
-7.19116e-08
2.89885e-07
-1.42393e-07
2.81744e-07
-1.90753e-07
2.00562e-07
-1.99363e-07
5.80884e-08
-1.52891e-07
-1.36789e-07
-3.75409e-08
-3.77954e-07
1.59489e-07
-6.61355e-07
4.50333e-07
-9.84102e-07
8.46537e-07
-1.34376e-06
1.35896e-06
-1.7376e-06
1.99745e-06
-2.16172e-06
2.77024e-06
-2.61041e-06
3.68327e-06
-3.07556e-06
4.73926e-06
-3.54639e-06
5.93685e-06
-4.00938e-06
7.26977e-06
-4.44867e-06
8.72618e-06
-4.84671e-06
1.02885e-05
-5.18549e-06
1.19334e-05
-5.4479e-06
1.36331e-05
-5.61942e-06
1.5356e-05
-5.68962e-06
1.70689e-05
-5.65329e-06
1.87388e-05
-5.51103e-06
2.03349e-05
-5.26919e-06
2.18299e-05
-4.93913e-06
2.32016e-05
-4.53612e-06
2.44333e-05
-4.07787e-06
2.55144e-05
-3.5831e-06
2.644e-05
-3.0702e-06
2.72102e-05
-2.55615e-06
2.78299e-05
-2.05572e-06
2.83073e-05
-1.58104e-06
2.86535e-05
-1.14138e-06
2.88813e-05
-7.43225e-07
2.90046e-05
-3.90448e-07
2.90374e-05
-8.46499e-08
2.8994e-05
1.74511e-07
2.88876e-05
3.88937e-07
2.87308e-05
5.61609e-07
2.85348e-05
6.96157e-07
2.83096e-05
7.96606e-07
2.8064e-05
8.67149e-07
2.78056e-05
9.11957e-07
2.75405e-05
9.35036e-07
2.72741e-05
9.40125e-07
2.70104e-05
9.3063e-07
2.67527e-05
9.09589e-07
2.65037e-05
8.79664e-07
2.62652e-05
8.43142e-07
2.60384e-05
8.01959e-07
2.58242e-05
7.57726e-07
2.56231e-05
7.11761e-07
2.54352e-05
6.65124e-07
2.52606e-05
6.18648e-07
2.50989e-05
5.72974e-07
2.49498e-05
5.28579e-07
2.48129e-05
4.85805e-07
2.46875e-05
4.44881e-07
2.45731e-05
4.05944e-07
2.44692e-05
3.69056e-07
2.43751e-05
3.34223e-07
2.42904e-05
3.01402e-07
2.42143e-05
2.70517e-07
2.41465e-05
2.41461e-07
2.40865e-05
2.1411e-07
2.40337e-05
1.88323e-07
2.39879e-05
1.63946e-07
2.39487e-05
1.40821e-07
2.39157e-05
1.1878e-07
2.38887e-05
9.76516e-08
2.38675e-05
7.72612e-08
2.3852e-05
5.74306e-08
2.38421e-05
3.79784e-08
2.38376e-05
1.87203e-08
2.38387e-05
-5.30759e-10
2.38453e-05
-1.99606e-08
2.38577e-05
-3.97646e-08
2.38759e-05
-6.01581e-08
2.39002e-05
-8.13733e-08
2.39309e-05
-1.0366e-07
2.39685e-05
-1.27288e-07
2.40134e-05
-1.5255e-07
2.40661e-05
-1.7977e-07
2.41273e-05
-2.09302e-07
2.41979e-05
-2.41545e-07
2.42787e-05
-2.76945e-07
2.43707e-05
-3.16006e-07
2.44753e-05
-3.59302e-07
2.45936e-05
-4.07491e-07
2.47275e-05
-4.61331e-07
2.48786e-05
-5.21699e-07
2.50491e-05
-5.89619e-07
2.52415e-05
-6.66288e-07
2.54586e-05
-7.53118e-07
2.57037e-05
-8.5178e-07
2.59806e-05
-9.64268e-07
2.62937e-05
-1.09297e-06
2.66483e-05
-1.24077e-06
2.70504e-05
-1.41118e-06
2.75073e-05
-1.60848e-06
2.80276e-05
-1.83798e-06
2.86216e-05
-2.10629e-06
2.93017e-05
-2.42178e-06
3.00831e-05
-2.79512e-06
3.09845e-05
-3.24016e-06
3.20294e-05
-3.77526e-06
3.32474e-05
-4.42519e-06
3.46771e-05
-5.22432e-06
3.63688e-05
-6.22173e-06
3.83895e-05
-7.48976e-06
4.08267e-05
-9.13854e-06
4.37899e-05
-1.13404e-05
4.73974e-05
-1.43699e-05
5.17265e-05
-1.86627e-05
5.66683e-05
-2.48935e-05
6.15188e-05
-3.40596e-05
6.39733e-05
-4.74583e-05
5.89111e-05
-6.59435e-05
4.09828e-05
-8.69176e-05
1.45385e-05
-0.00010098
-1.26038e-05
-0.000102427
-3.15726e-05
-8.95949e-05
-3.70342e-05
-6.83095e-05
-3.45329e-05
-4.90049e-05
-2.94629e-05
-3.47989e-05
-2.42869e-05
-2.50085e-05
-1.97749e-05
-1.83658e-05
-1.60506e-05
-1.38463e-05
-1.30279e-05
-1.07277e-05
-1.05703e-05
-8.52702e-06
-8.55147e-06
-6.93147e-06
-6.87111e-06
-5.74004e-06
-5.4551e-06
-4.82196e-06
-4.25032e-06
-4.09011e-06
-3.2194e-06
-3.48485e-06
-2.33641e-06
-2.96459e-06
-1.58361e-06
-2.50039e-06
-9.48943e-07
-2.07288e-06
-4.23469e-07
-1.67021e-06
-1.28851e-06
-7.86257e-08
3.68511e-07
-1.58156e-07
3.61275e-07
-2.16885e-07
2.59291e-07
-2.36055e-07
7.7259e-08
-1.99189e-07
-1.73656e-07
-9.12193e-08
-4.85923e-07
1.02069e-07
-8.54644e-07
3.94479e-07
-1.27651e-06
7.99445e-07
-1.74873e-06
1.32993e-06
-2.26808e-06
1.99805e-06
-2.82985e-06
2.81447e-06
-3.42682e-06
3.78744e-06
-4.04854e-06
4.92181e-06
-4.68076e-06
6.21781e-06
-5.30538e-06
7.66991e-06
-5.90077e-06
9.26594e-06
-6.44274e-06
1.09866e-05
-6.90612e-06
1.28055e-05
-7.26681e-06
1.46902e-05
-7.50419e-06
1.6604e-05
-7.6034e-06
1.85077e-05
-7.55699e-06
2.03625e-05
-7.36582e-06
2.21322e-05
-7.03891e-06
2.37854e-05
-6.59234e-06
2.52968e-05
-6.04753e-06
2.66481e-05
-5.42916e-06
2.78281e-05
-4.76308e-06
2.88324e-05
-4.07444e-06
2.96625e-05
-3.38625e-06
3.0325e-05
-2.7183e-06
3.08306e-05
-2.08663e-06
3.11926e-05
-1.50334e-06
3.1426e-05
-9.76673e-07
3.1547e-05
-5.11409e-07
3.15716e-05
-1.09282e-07
3.15156e-05
2.30491e-07
3.13939e-05
5.10696e-07
3.122e-05
7.35526e-07
3.10061e-05
9.09998e-07
3.07631e-05
1.03961e-06
3.05002e-05
1.13003e-06
3.02254e-05
1.18685e-06
2.9945e-05
1.21541e-06
2.96644e-05
1.22067e-06
2.93879e-05
1.20712e-06
2.91188e-05
1.17873e-06
2.88595e-05
1.13898e-06
2.86118e-05
1.09085e-06
2.83769e-05
1.03684e-06
2.81556e-05
9.79025e-07
2.79483e-05
9.19103e-07
2.7755e-05
8.58428e-07
2.75755e-05
7.98062e-07
2.74097e-05
7.38819e-07
2.7257e-05
6.813e-07
2.71168e-05
6.25933e-07
2.69887e-05
5.73001e-07
2.6872e-05
5.22672e-07
2.6766e-05
4.75017e-07
2.66702e-05
4.30034e-07
2.6584e-05
3.87664e-07
2.65067e-05
3.47801e-07
2.64378e-05
3.10305e-07
2.63769e-05
2.7501e-07
2.63235e-05
2.41732e-07
2.62772e-05
2.10272e-07
2.62376e-05
1.80422e-07
2.62044e-05
1.51964e-07
2.61774e-05
1.24678e-07
2.61563e-05
9.83362e-08
2.6141e-05
7.2709e-08
2.61315e-05
4.75619e-08
2.61275e-05
2.26566e-08
2.61292e-05
-2.24777e-09
2.61367e-05
-2.73951e-08
2.61499e-05
-5.3042e-08
2.61693e-05
-7.94672e-08
2.61949e-05
-1.0697e-07
2.62271e-05
-1.3587e-07
2.62663e-05
-1.66516e-07
2.6313e-05
-1.99284e-07
2.63678e-05
-2.34588e-07
2.64314e-05
-2.72884e-07
2.65046e-05
-3.14683e-07
2.65882e-05
-3.60553e-07
2.66833e-05
-4.11141e-07
2.67912e-05
-4.67177e-07
2.69132e-05
-5.29499e-07
2.70509e-05
-5.99068e-07
2.72062e-05
-6.76995e-07
2.73812e-05
-7.64571e-07
2.75782e-05
-8.63305e-07
2.78e-05
-9.74967e-07
2.80499e-05
-1.10165e-06
2.83315e-05
-1.24583e-06
2.8649e-05
-1.41048e-06
2.90074e-05
-1.59917e-06
2.94124e-05
-1.81621e-06
2.98708e-05
-2.06686e-06
3.03904e-05
-2.3576e-06
3.09806e-05
-2.69648e-06
3.16524e-05
-3.09358e-06
3.2419e-05
-3.56175e-06
3.32964e-05
-4.11753e-06
3.43038e-05
-4.78261e-06
3.54645e-05
-5.58593e-06
3.68071e-05
-6.56687e-06
3.83655e-05
-7.78015e-06
4.0179e-05
-9.30325e-06
4.22881e-05
-1.12477e-05
4.47232e-05
-1.37755e-05
4.74742e-05
-1.71209e-05
5.04261e-05
-2.16145e-05
5.32283e-05
-2.76958e-05
5.50526e-05
-3.58839e-05
5.4216e-05
-4.66216e-05
4.80073e-05
-5.97349e-05
3.42087e-05
-7.31189e-05
1.5193e-05
-8.19647e-05
-4.31405e-06
-8.29203e-05
-1.88671e-05
-7.50419e-05
-2.55059e-05
-6.16706e-05
-2.64381e-05
-4.80728e-05
-2.45052e-05
-3.67318e-05
-2.15059e-05
-2.80078e-05
-1.83427e-05
-2.1529e-05
-1.54039e-05
-1.67851e-05
-1.28171e-05
-1.33145e-05
-1.05902e-05
-1.07539e-05
-8.68528e-06
-8.83639e-06
-7.05353e-06
-7.37179e-06
-5.64962e-06
-6.22587e-06
-4.43628e-06
-5.30344e-06
-3.3848e-06
-4.53633e-06
-2.47397e-06
-3.87542e-06
-1.68879e-06
-3.28558e-06
-1.01903e-06
-2.74264e-06
-4.57672e-07
-2.23157e-06
-1.74618e-06
-9.43017e-08
4.62813e-07
-1.93492e-07
4.60465e-07
-2.74814e-07
3.40614e-07
-3.1848e-07
1.20925e-07
-3.06913e-07
-1.85223e-07
-2.23782e-07
-5.69054e-07
-5.33397e-08
-1.02509e-06
2.20012e-07
-1.54986e-06
6.11976e-07
-2.14069e-06
1.13814e-06
-2.79424e-06
1.8136e-06
-3.50531e-06
2.65224e-06
-4.26547e-06
3.66567e-06
-5.06196e-06
4.86182e-06
-5.87691e-06
6.24348e-06
-6.68704e-06
7.80667e-06
-7.46396e-06
9.5393e-06
-8.17537e-06
1.14203e-05
-8.7871e-06
1.34196e-05
-9.26608e-06
1.54991e-05
-9.58375e-06
1.76151e-05
-9.7194e-06
1.97208e-05
-9.66271e-06
2.177e-05
-9.41495e-06
2.37197e-05
-8.98865e-06
2.55334e-05
-8.40603e-06
2.71823e-05
-7.69641e-06
2.86463e-05
-6.89318e-06
2.99142e-05
-6.03094e-06
3.09827e-05
-5.14295e-06
3.18556e-05
-4.25919e-06
3.25424e-05
-3.40509e-06
3.30567e-05
-2.60093e-06
3.3415e-05
-1.86164e-06
3.36355e-05
-1.19711e-06
3.37368e-05
-6.12709e-07
3.37374e-05
-1.09951e-07
3.36551e-05
3.12811e-07
3.35062e-05
6.59626e-07
3.33055e-05
9.36239e-07
3.30661e-05
1.14938e-06
3.27994e-05
1.30629e-06
3.25151e-05
1.41435e-06
3.22211e-05
1.48079e-06
3.19241e-05
1.51241e-06
3.16293e-05
1.51549e-06
3.13408e-05
1.49567e-06
3.10616e-05
1.45792e-06
3.0794e-05
1.40655e-06
3.05396e-05
1.34523e-06
3.02995e-05
1.27702e-06
3.0074e-05
1.20447e-06
2.98635e-05
1.12961e-06
2.96678e-05
1.05409e-06
2.94867e-05
9.79164e-07
2.93198e-05
9.0581e-07
2.91663e-05
8.34733e-07
2.90258e-05
7.6643e-07
2.88976e-05
7.01223e-07
2.8781e-05
6.39296e-07
2.86753e-05
5.80718e-07
2.85798e-05
5.25472e-07
2.8494e-05
4.7347e-07
2.84173e-05
4.24572e-07
2.8349e-05
3.78598e-07
2.82886e-05
3.35337e-07
2.82358e-05
2.94557e-07
2.81901e-05
2.5601e-07
2.81511e-05
2.19438e-07
2.81185e-05
1.84571e-07
2.8092e-05
1.51137e-07
2.80715e-05
1.18857e-07
2.80567e-05
8.74467e-08
2.80477e-05
5.66195e-08
2.80443e-05
2.60828e-08
2.80465e-05
-4.45942e-09
2.80544e-05
-3.53096e-08
2.80681e-05
-6.67864e-08
2.80879e-05
-9.9231e-08
2.81139e-05
-1.33008e-07
2.81466e-05
-1.68509e-07
2.81862e-05
-2.06155e-07
2.82333e-05
-2.46404e-07
2.82885e-05
-2.89759e-07
2.83524e-05
-3.36774e-07
2.84258e-05
-3.88063e-07
2.85095e-05
-4.44318e-07
2.86047e-05
-5.06315e-07
2.87125e-05
-5.74934e-07
2.88341e-05
-6.51178e-07
2.89713e-05
-7.36198e-07
2.91256e-05
-8.31319e-07
2.92991e-05
-9.38075e-07
2.9494e-05
-1.05825e-06
2.9713e-05
-1.19394e-06
2.9959e-05
-1.34759e-06
3.02352e-05
-1.5221e-06
3.05457e-05
-1.72094e-06
3.08947e-05
-1.94823e-06
3.12875e-05
-2.20893e-06
3.17297e-05
-2.50906e-06
3.22281e-05
-2.85599e-06
3.27904e-05
-3.25878e-06
3.34255e-05
-3.72872e-06
3.41437e-05
-4.28e-06
3.49569e-05
-4.93071e-06
3.58785e-05
-5.70415e-06
3.69233e-05
-6.6308e-06
3.81075e-05
-7.75104e-06
3.94463e-05
-9.119e-06
4.0951e-05
-1.08079e-05
4.26202e-05
-1.2917e-05
4.44248e-05
-1.558e-05
4.62766e-05
-1.89728e-05
4.79769e-05
-2.33148e-05
4.91328e-05
-2.88516e-05
4.90442e-05
-3.57953e-05
4.66004e-05
-4.41778e-05
4.03945e-05
-5.3529e-05
2.9621e-05
-6.23454e-05
1.56869e-05
-6.80306e-05
1.42056e-06
-6.8654e-05
-9.8798e-06
-6.37415e-05
-1.64731e-05
-5.50774e-05
-1.90745e-05
-4.54713e-05
-1.91347e-05
-3.66717e-05
-1.78347e-05
-2.93077e-05
-1.5936e-05
-2.34277e-05
-1.38734e-05
-1.88477e-05
-1.18689e-05
-1.53189e-05
-1.00197e-05
-1.26032e-05
-8.35612e-06
-1.04999e-05
-6.87697e-06
-8.85094e-06
-5.56812e-06
-7.53472e-06
-4.41224e-06
-6.45933e-06
-3.39312e-06
-5.55545e-06
-2.49751e-06
-4.77103e-06
-1.71557e-06
-4.06752e-06
-1.04077e-06
-3.41743e-06
-4.69294e-07
-2.80305e-06
-2.21547e-06
-1.20431e-07
5.83244e-07
-2.51538e-07
5.91572e-07
-3.69439e-07
4.58514e-07
-4.53311e-07
2.04796e-07
-4.84478e-07
-1.54056e-07
-4.45319e-07
-6.08213e-07
-3.18442e-07
-1.15196e-06
-8.61675e-08
-1.78214e-06
2.69783e-07
-2.49664e-06
7.6824e-07
-3.2927e-06
1.42812e-06
-4.16519e-06
2.26759e-06
-5.10494e-06
3.30271e-06
-6.09708e-06
4.54582e-06
-7.12002e-06
6.00349e-06
-8.1447e-06
7.67429e-06
-9.13476e-06
9.54677e-06
-1.00479e-05
1.1598e-05
-1.08384e-05
1.37933e-05
-1.14614e-05
1.60875e-05
-1.18779e-05
1.84276e-05
-1.20595e-05
2.07568e-05
-1.19919e-05
2.30189e-05
-1.16771e-05
2.51629e-05
-1.11326e-05
2.71455e-05
-1.03886e-05
2.8934e-05
-9.48488e-06
3.05066e-05
-8.46584e-06
3.18526e-05
-7.37696e-06
3.2971e-05
-6.26127e-06
3.38687e-05
-5.15689e-06
3.45592e-05
-4.0956e-06
3.50604e-05
-3.10213e-06
3.53929e-05
-2.19419e-06
3.55788e-05
-1.38296e-06
3.564e-05
-6.73953e-07
3.5598e-05
-6.79421e-08
3.54726e-05
4.38178e-07
3.5282e-05
8.50268e-07
3.50421e-05
1.17608e-06
3.47671e-05
1.42446e-06
3.44686e-05
1.60476e-06
3.41566e-05
1.72638e-06
3.3839e-05
1.79836e-06
3.35222e-05
1.82915e-06
3.32113e-05
1.82645e-06
3.29098e-05
1.79712e-06
3.26206e-05
1.74715e-06
3.23455e-05
1.68168e-06
3.20856e-05
1.60507e-06
3.18417e-05
1.52091e-06
3.1614e-05
1.43217e-06
3.14024e-05
1.34122e-06
3.12066e-05
1.24992e-06
3.1026e-05
1.15973e-06
3.08601e-05
1.07173e-06
3.07081e-05
9.86705e-07
3.05694e-05
9.05196e-07
3.04431e-05
8.27541e-07
3.03284e-05
7.53922e-07
3.02248e-05
6.84388e-07
3.01313e-05
6.18892e-07
3.00475e-05
5.5731e-07
2.99726e-05
4.99456e-07
2.99061e-05
4.45102e-07
2.98475e-05
3.93988e-07
2.97962e-05
3.4583e-07
2.97519e-05
3.00327e-07
2.97141e-05
2.57166e-07
2.96827e-05
2.16027e-07
2.96572e-05
1.76583e-07
2.96376e-05
1.38503e-07
2.96236e-05
1.01452e-07
2.96151e-05
6.50876e-08
2.96121e-05
2.90651e-08
2.96146e-05
-6.96676e-09
2.96227e-05
-4.33683e-08
2.96364e-05
-8.05182e-08
2.9656e-05
-1.18818e-07
2.96817e-05
-1.58697e-07
2.97138e-05
-2.0061e-07
2.97527e-05
-2.45052e-07
2.97989e-05
-2.92556e-07
2.98528e-05
-3.43707e-07
2.99152e-05
-3.99151e-07
2.99867e-05
-4.596e-07
3.00683e-05
-5.25854e-07
3.01608e-05
-5.9881e-07
3.02653e-05
-6.79482e-07
3.03831e-05
-7.69021e-07
3.05157e-05
-8.68744e-07
3.06645e-05
-9.80161e-07
3.08315e-05
-1.10501e-06
3.10185e-05
-1.24532e-06
3.12281e-05
-1.40344e-06
3.14626e-05
-1.58211e-06
3.1725e-05
-1.78457e-06
3.20187e-05
-2.01464e-06
3.23474e-05
-2.27686e-06
3.27151e-05
-2.57666e-06
3.31266e-05
-2.92056e-06
3.35871e-05
-3.31646e-06
3.41023e-05
-3.77401e-06
3.46786e-05
-4.30506e-06
3.53229e-05
-4.92431e-06
3.60424e-05
-5.65018e-06
3.68442e-05
-6.50594e-06
3.77346e-05
-7.52122e-06
3.87177e-05
-8.73407e-06
3.97921e-05
-1.01935e-05
4.09467e-05
-1.19625e-05
4.21511e-05
-1.41214e-05
4.33412e-05
-1.67701e-05
4.43958e-05
-2.00274e-05
4.51022e-05
-2.40212e-05
4.51137e-05
-2.88631e-05
4.39101e-05
-3.45918e-05
4.08018e-05
-4.10695e-05
3.50848e-05
-4.7812e-05
2.6534e-05
-5.37947e-05
1.6052e-05
-5.75486e-05
5.36736e-06
-5.79693e-05
-3.54673e-06
-5.48274e-05
-9.58386e-06
-4.90403e-05
-1.28613e-05
-4.21938e-05
-1.40817e-05
-3.54514e-05
-1.39717e-05
-2.94177e-05
-1.30948e-05
-2.43046e-05
-1.18342e-05
-2.01082e-05
-1.0428e-05
-1.67252e-05
-9.01212e-06
-1.4019e-05
-7.65782e-06
-1.18542e-05
-6.39792e-06
-1.01108e-05
-5.24419e-06
-8.68844e-06
-4.19787e-06
-7.50565e-06
-3.25574e-06
-6.49758e-06
-2.4135e-06
-5.61327e-06
-1.66762e-06
-4.81341e-06
-1.01625e-06
-4.06881e-06
-4.59459e-07
-3.35984e-06
-2.67493e-06
-1.5751e-07
7.40754e-07
-3.33383e-07
7.67445e-07
-5.0251e-07
6.27641e-07
-6.43019e-07
3.45306e-07
-7.35157e-07
-6.19181e-08
-7.59965e-07
-5.83404e-07
-6.98309e-07
-1.21362e-06
-5.3016e-07
-1.95029e-06
-2.34196e-07
-2.7926e-06
2.12298e-07
-3.73919e-06
8.3284e-07
-4.78573e-06
1.65122e-06
-5.92332e-06
2.68937e-06
-7.13524e-06
3.9656e-06
-8.39626e-06
5.49181e-06
-9.67091e-06
7.27047e-06
-1.09134e-05
9.29158e-06
-1.2069e-05
1.15303e-05
-1.30771e-05
1.39463e-05
-1.38774e-05
1.64849e-05
-1.44165e-05
1.90811e-05
-1.46557e-05
2.16649e-05
-1.45757e-05
2.41675e-05
-1.41797e-05
2.65268e-05
-1.34919e-05
2.86919e-05
-1.25537e-05
3.06253e-05
-1.14183e-05
3.23041e-05
-1.01446e-05
3.37186e-05
-8.79151e-06
3.48713e-05
-7.41394e-06
3.57739e-05
-6.05951e-06
3.64453e-05
-4.76704e-06
3.69091e-05
-3.56585e-06
3.71911e-05
-2.47619e-06
3.73181e-05
-1.51002e-06
3.73164e-05
-6.72268e-07
3.72107e-05
3.77918e-08
3.70234e-05
6.2544e-07
3.67746e-05
1.09909e-06
3.64816e-05
1.46908e-06
3.61592e-05
1.74691e-06
3.58194e-05
1.94449e-06
3.54723e-05
2.07355e-06
3.51254e-05
2.14521e-06
3.47848e-05
2.16973e-06
3.4455e-05
2.15633e-06
3.41389e-05
2.11315e-06
3.38389e-05
2.04719e-06
3.35561e-05
1.96444e-06
3.32913e-05
1.86987e-06
3.30447e-05
1.76758e-06
3.28159e-05
1.6609e-06
3.26047e-05
1.55247e-06
3.24102e-05
1.44435e-06
3.22319e-05
1.3381e-06
3.20687e-05
1.23489e-06
3.19199e-05
1.13554e-06
3.17845e-05
1.0406e-06
3.16616e-05
9.50385e-07
3.15505e-05
8.65058e-07
3.14503e-05
7.84628e-07
3.13602e-05
7.08998e-07
3.12795e-05
6.37991e-07
3.12076e-05
5.71368e-07
3.11438e-05
5.08843e-07
3.10877e-05
4.50099e-07
3.10387e-05
3.94794e-07
3.09965e-05
3.42572e-07
3.09606e-05
2.93064e-07
3.09307e-05
2.45896e-07
3.09066e-05
2.00687e-07
3.08881e-05
1.57053e-07
3.08749e-05
1.14607e-07
3.08671e-05
7.29557e-08
3.08644e-05
3.17014e-08
3.0867e-05
-9.5604e-09
3.08749e-05
-5.1246e-08
3.08882e-05
-9.37912e-08
3.0907e-05
-1.37655e-07
3.09316e-05
-1.83323e-07
3.09623e-05
-2.31316e-07
3.09995e-05
-2.8219e-07
3.10435e-05
-3.3655e-07
3.10948e-05
-3.95056e-07
3.11541e-05
-4.58433e-07
3.1222e-05
-5.27483e-07
3.12992e-05
-6.03101e-07
3.13867e-05
-6.86289e-07
3.14854e-05
-7.78175e-07
3.15964e-05
-8.80037e-07
3.1721e-05
-9.93329e-07
3.18606e-05
-1.11971e-06
3.20166e-05
-1.2611e-06
3.2191e-05
-1.41968e-06
3.23856e-05
-1.59802e-06
3.26025e-05
-1.79907e-06
3.28443e-05
-2.0263e-06
3.31134e-05
-2.28377e-06
3.34128e-05
-2.57628e-06
3.37457e-05
-2.90951e-06
3.41153e-05
-3.29021e-06
3.45254e-05
-3.7265e-06
3.49795e-05
-4.22814e-06
3.54814e-05
-4.80696e-06
3.60345e-05
-5.47742e-06
3.66416e-05
-6.25722e-06
3.73038e-05
-7.16823e-06
3.80201e-05
-8.23747e-06
3.87845e-05
-9.49845e-06
3.95835e-05
-1.09925e-05
4.03908e-05
-1.27698e-05
4.116e-05
-1.48905e-05
4.18126e-05
-1.74228e-05
4.22234e-05
-2.04381e-05
4.2201e-05
-2.39989e-05
4.14715e-05
-2.81336e-05
3.96749e-05
-3.27951e-05
3.64014e-05
-3.7796e-05
3.13164e-05
-4.2727e-05
2.44219e-05
-4.69001e-05
1.63278e-05
-4.94544e-05
8.11045e-06
-4.9752e-05
9.54378e-07
-4.76713e-05
-4.3755e-06
-4.37104e-05
-7.80106e-06
-3.87683e-05
-9.63345e-06
-3.3619e-05
-1.02967e-05
-2.87544e-05
-1.01781e-05
-2.44232e-05
-9.5794e-06
-2.07069e-05
-8.71464e-06
-1.75899e-05
-7.72546e-06
-1.50082e-05
-6.70031e-06
-1.28794e-05
-5.69162e-06
-1.11195e-05
-4.72882e-06
-9.65124e-06
-3.82754e-06
-8.40693e-06
-2.99565e-06
-7.32947e-06
-2.23716e-06
-6.37176e-06
-1.55477e-06
-5.4958e-06
-9.51389e-07
-4.67219e-06
-4.31034e-07
-3.88019e-06
-3.10597e-06
-2.05229e-07
9.45984e-07
-4.38421e-07
1.00064e-06
-6.73168e-07
8.62388e-07
-8.86589e-07
5.58727e-07
-1.05792e-06
1.09413e-07
-1.16685e-06
-4.74474e-07
-1.19246e-06
-1.18801e-06
-1.11213e-06
-2.03061e-06
-9.01012e-07
-3.00373e-06
-5.31824e-07
-4.10838e-06
2.4842e-08
-5.34239e-06
7.99216e-07
-6.69769e-06
1.8211e-06
-8.15712e-06
3.11668e-06
-9.69184e-06
4.70524e-06
-1.12595e-05
6.59489e-06
-1.28031e-05
8.77824e-06
-1.42523e-05
1.12287e-05
-1.55275e-05
1.38986e-05
-1.65473e-05
1.67213e-05
-1.72392e-05
1.96159e-05
-1.75502e-05
2.2495e-05
-1.74548e-05
2.52733e-05
-1.6958e-05
2.78752e-05
-1.60938e-05
3.02402e-05
-1.49187e-05
3.23259e-05
-1.35041e-05
3.41084e-05
-1.19271e-05
3.55807e-05
-1.02638e-05
3.67502e-05
-8.58343e-06
3.76352e-05
-6.94459e-06
3.8262e-05
-5.39376e-06
3.8661e-05
-3.9649e-06
3.88651e-05
-2.68024e-06
3.89068e-05
-1.55174e-06
3.88173e-05
-5.82787e-07
3.86251e-05
2.3e-07
3.83556e-05
8.94879e-07
3.80311e-05
1.42365e-06
3.76701e-05
1.83009e-06
3.7288e-05
2.12902e-06
3.68971e-05
2.33538e-06
3.6507e-05
2.46363e-06
3.6125e-05
2.52724e-06
3.57563e-05
2.53845e-06
3.54045e-05
2.5081e-06
3.5072e-05
2.44561e-06
3.47602e-05
2.35903e-06
3.44695e-05
2.25509e-06
3.42e-05
2.13936e-06
3.39513e-05
2.01635e-06
3.37225e-05
1.88969e-06
3.35128e-05
1.7622e-06
3.3321e-05
1.63606e-06
3.31462e-05
1.5129e-06
3.29872e-05
1.39389e-06
3.28429e-05
1.27984e-06
3.27123e-05
1.17127e-06
3.25942e-05
1.06845e-06
3.24878e-05
9.7147e-07
3.23921e-05
8.8028e-07
3.23064e-05
7.94716e-07
3.22299e-05
7.1453e-07
3.21618e-05
6.39416e-07
3.21017e-05
5.69021e-07