/*--------------------------------*- C++ -*----------------------------------*\
| =========                 |                                                 |
| \\      /  F ield         | OpenFOAM: The Open Source CFD Toolbox           |
|  \\    /   O peration     | Version:  2306                                  |
|   \\  /    A nd           | Website:  www.openfoam.com                      |
|    \\/     M anipulation  |                                                 |
\*---------------------------------------------------------------------------*/
FoamFile
{
    version     2.0;
    format      ascii;
    arch        "LSB;label=32;scalar=64";
    class       volVectorField;
    location    "10";
    object      U;
}
// * * * * * * * * * * * * * * * * * * * * * * * * * * * * * * * * * * * * * //

dimensions      [0 1 -1 0 0 0 0];

internalField   nonuniform List<vector> 
4480
(
(-2.13616e-05 0 2.08613e-05)
(-4.24094e-05 0 2.0662e-05)
(-7.00076e-05 0 1.51045e-05)
(-8.73013e-05 0 6.47395e-06)
(-8.99191e-05 0 -5.04228e-06)
(-7.44717e-05 0 -1.91484e-05)
(-3.76351e-05 0 -3.5543e-05)
(2.37386e-05 0 -5.40296e-05)
(0.00011253 0 -7.44522e-05)
(0.000231431 0 -9.66491e-05)
(0.000382873 0 -0.000120393)
(0.000568907 0 -0.000145351)
(0.000791031 0 -0.000171059)
(0.00104999 0 -0.000196908)
(0.00134558 0 -0.000222155)
(0.00167641 0 -0.000245936)
(0.00203983 0 -0.000267321)
(0.00243181 0 -0.000285366)
(0.00284698 0 -0.000299194)
(0.00327876 0 -0.000308067)
(0.00371968 0 -0.000311464)
(0.00416163 0 -0.00030913)
(0.00459636 0 -0.000301103)
(0.00501588 0 -0.000287718)
(0.00541286 0 -0.000269567)
(0.005781 0 -0.000247448)
(0.00611526 0 -0.000222297)
(0.00641201 0 -0.00019511)
(0.00666904 0 -0.000166878)
(0.00688557 0 -0.000138526)
(0.00706204 0 -0.00011087)
(0.00719999 0 -8.45865e-05)
(0.00730181 0 -6.0202e-05)
(0.00737051 0 -3.80914e-05)
(0.00740955 0 -1.84869e-05)
(0.0074226 0 -1.48689e-06)
(0.00741346 0 1.29187e-05)
(0.00738568 0 2.48506e-05)
(0.0073427 0 3.44594e-05)
(0.0072877 0 4.19387e-05)
(0.00722357 0 4.75072e-05)
(0.00715285 0 5.13948e-05)
(0.00707775 0 5.38324e-05)
(0.00700018 0 5.50429e-05)
(0.00692171 0 5.52355e-05)
(0.00684364 0 5.46016e-05)
(0.00676702 0 5.33128e-05)
(0.00669264 0 5.15198e-05)
(0.00662113 0 4.93525e-05)
(0.00655292 0 4.69214e-05)
(0.00648831 0 4.43186e-05)
(0.00642749 0 4.16194e-05)
(0.00637055 0 3.88847e-05)
(0.00631748 0 3.61624e-05)
(0.00626825 0 3.34893e-05)
(0.00622276 0 3.08929e-05)
(0.00618089 0 2.83929e-05)
(0.00614248 0 2.60025e-05)
(0.00610737 0 2.37294e-05)
(0.00607539 0 2.15774e-05)
(0.00604637 0 1.95465e-05)
(0.00602014 0 1.76344e-05)
(0.00599652 0 1.58364e-05)
(0.00597538 0 1.41464e-05)
(0.00595654 0 1.25571e-05)
(0.00593988 0 1.10602e-05)
(0.00592528 0 9.6469e-06)
(0.00591262 0 8.30781e-06)
(0.0059018 0 7.03321e-06)
(0.00589274 0 5.81313e-06)
(0.00588536 0 4.63739e-06)
(0.00587962 0 3.49563e-06)
(0.00587547 0 2.37742e-06)
(0.00587288 0 1.27258e-06)
(0.00587184 0 1.70966e-07)
(0.00587237 0 -9.42099e-07)
(0.00587448 0 -2.07412e-06)
(0.00587819 0 -3.23676e-06)
(0.00588357 0 -4.44378e-06)
(0.00589069 0 -5.70988e-06)
(0.00589964 0 -7.05074e-06)
(0.00591054 0 -8.48338e-06)
(0.00592353 0 -1.00264e-05)
(0.00593878 0 -1.17006e-05)
(0.00595648 0 -1.35287e-05)
(0.00597688 0 -1.55368e-05)
(0.00600024 0 -1.77542e-05)
(0.00602688 0 -2.02143e-05)
(0.00605717 0 -2.29557e-05)
(0.00609153 0 -2.60229e-05)
(0.00613045 0 -2.94677e-05)
(0.0061745 0 -3.33507e-05)
(0.00622435 0 -3.77432e-05)
(0.00628076 0 -4.27297e-05)
(0.00634463 0 -4.84107e-05)
(0.00641702 0 -5.49066e-05)
(0.00649916 0 -6.23625e-05)
(0.0065925 0 -7.09542e-05)
(0.00669878 0 -8.08963e-05)
(0.00682005 0 -9.24519e-05)
(0.00695879 0 -0.000105946)
(0.00711797 0 -0.000121784)
(0.00730118 0 -0.000140469)
(0.00751283 0 -0.000162637)
(0.00775831 0 -0.000189082)
(0.00804433 0 -0.000220798)
(0.00837917 0 -0.000259014)
(0.0087732 0 -0.000305206)
(0.00923931 0 -0.000361076)
(0.00979346 0 -0.000428449)
(0.010456 0 -0.000509509)
(0.0112549 0 -0.000609543)
(0.0122251 0 -0.000746906)
(0.0133795 0 -0.000972545)
(0.0147408 0 -0.00142438)
(0.017118 0 -0.0027635)
(0.0245493 0 -0.0085705)
(0.0384068 0 -0.0315437)
(0.0428014 0 -0.0804308)
(0.0197081 0 -0.10132)
(-0.00975428 0 -0.103756)
(-0.0350995 0 -0.0842308)
(-0.0311677 0 -0.0326681)
(-0.0165676 0 -0.00902939)
(-0.00886036 0 -0.00283062)
(-0.0065896 0 -0.0013492)
(-0.00540819 0 -0.000854319)
(-0.00442438 0 -0.000626007)
(-0.00360546 0 -0.000502105)
(-0.00293622 0 -0.000419811)
(-0.00238133 0 -0.000355749)
(-0.0019144 0 -0.000303035)
(-0.0015181 0 -0.00025907)
(-0.00118003 0 -0.000221884)
(-0.000891142 0 -0.000189646)
(-0.000645225 0 -0.000160714)
(-0.000437895 0 -0.000133795)
(-0.000265198 0 -0.000108431)
(-0.000126605 0 -8.50678e-05)
(-5.79979e-05 0 -5.83094e-05)
(-2.21165e-05 0 4.21277e-05)
(-4.33943e-05 0 4.14858e-05)
(-7.06179e-05 0 3.11921e-05)
(-8.58031e-05 0 1.34653e-05)
(-8.39325e-05 0 -1.05197e-05)
(-6.0791e-05 0 -3.99619e-05)
(-1.22908e-05 0 -7.42948e-05)
(6.5376e-05 0 -0.000113126)
(0.000175715 0 -0.000156132)
(0.000321991 0 -0.000202971)
(0.000507137 0 -0.00025316)
(0.000733614 0 -0.000305996)
(0.00100322 0 -0.000360502)
(0.00131685 0 -0.000415395)
(0.00167426 0 -0.000469095)
(0.00207382 0 -0.000519773)
(0.00251236 0 -0.000565438)
(0.00298508 0 -0.000604074)
(0.00348558 0 -0.000633788)
(0.00400603 0 -0.000652992)
(0.00453747 0 -0.000660548)
(0.00507025 0 -0.000655894)
(0.00559451 0 -0.000639103)
(0.0061007 0 -0.000610876)
(0.00658009 0 -0.000572476)
(0.00702513 0 -0.000525607)
(0.00742981 0 -0.000472267)
(0.00778978 0 -0.000414584)
(0.0081024 0 -0.000354673)
(0.0083667 0 -0.000294504)
(0.00858318 0 -0.000235813)
(0.00875361 0 -0.00018004)
(0.0088808 0 -0.0001283)
(0.0089683 0 -8.13875e-05)
(0.00902019 0 -3.97916e-05)
(0.00904077 0 -3.72507e-06)
(0.00903455 0 2.68483e-05)
(0.00900579 0 5.21627e-05)
(0.00895858 0 7.25448e-05)
(0.00889672 0 8.84087e-05)
(0.00882365 0 0.00010022)
(0.00874242 0 0.000108469)
(0.00865568 0 0.000113645)
(0.00856572 0 0.000116221)
(0.00847443 0 0.000116641)
(0.00838339 0 0.000115311)
(0.00829385 0 0.000112595)
(0.00820679 0 0.00010881)
(0.00812296 0 0.000104234)
(0.00804292 0 9.90996e-05)
(0.00796702 0 9.36015e-05)
(0.00789551 0 8.78996e-05)
(0.0078285 0 8.21225e-05)
(0.00776602 0 7.63715e-05)
(0.00770802 0 7.07245e-05)
(0.00765439 0 6.52397e-05)
(0.00760501 0 5.99585e-05)
(0.00755969 0 5.49088e-05)
(0.00751826 0 5.01072e-05)
(0.00748051 0 4.55612e-05)
(0.00744625 0 4.12714e-05)
(0.00741528 0 3.72323e-05)
(0.0073874 0 3.34344e-05)
(0.00736243 0 2.98647e-05)
(0.00734021 0 2.65077e-05)
(0.00732056 0 2.33459e-05)
(0.00730335 0 2.03608e-05)
(0.00728845 0 1.75324e-05)
(0.00727573 0 1.48403e-05)
(0.0072651 0 1.22634e-05)
(0.00725649 0 9.78024e-06)
(0.00724982 0 7.36897e-06)
(0.00724505 0 5.00746e-06)
(0.00724214 0 2.67344e-06)
(0.0072411 0 3.44307e-07)
(0.00724193 0 -2.00443e-06)
(0.00724465 0 -4.39359e-06)
(0.0072493 0 -6.84856e-06)
(0.00725595 0 -9.3978e-06)
(0.0072647 0 -1.2072e-05)
(0.00727565 0 -1.49041e-05)
(0.00728895 0 -1.793e-05)
(0.00730477 0 -2.11889e-05)
(0.00732332 0 -2.47244e-05)
(0.00734484 0 -2.85849e-05)
(0.0073696 0 -3.28249e-05)
(0.00739795 0 -3.75064e-05)
(0.00743025 0 -4.26997e-05)
(0.00746696 0 -4.8486e-05)
(0.00750858 0 -5.4959e-05)
(0.0075557 0 -6.22277e-05)
(0.00760901 0 -7.04195e-05)
(0.00766931 0 -7.96844e-05)
(0.00773751 0 -9.02e-05)
(0.0078147 0 -0.000102177)
(0.00790213 0 -0.00011587)
(0.00800128 0 -0.000131581)
(0.00811389 0 -0.000149682)
(0.00824203 0 -0.000170623)
(0.00838815 0 -0.000194958)
(0.00855518 0 -0.000223372)
(0.00874668 0 -0.000256722)
(0.00896694 0 -0.000296082)
(0.00922122 0 -0.000342816)
(0.00951603 0 -0.000398663)
(0.0098595 0 -0.000465868)
(0.010262 0 -0.000547346)
(0.0107367 0 -0.000646943)
(0.0113016 0 -0.000769838)
(0.011981 0 -0.000923297)
(0.012811 0 -0.00111848)
(0.0138488 0 -0.00137581)
(0.0151874 0 -0.00173957)
(0.0169749 0 -0.00230861)
(0.0194921 0 -0.00329812)
(0.0234779 0 -0.00530067)
(0.0303107 0 -0.0104959)
(0.0377097 0 -0.0255805)
(0.0343741 0 -0.0577281)
(0.0167301 0 -0.0755284)
(-0.00644522 0 -0.0771663)
(-0.0254416 0 -0.0604651)
(-0.0290211 0 -0.0268005)
(-0.0212169 0 -0.0108901)
(-0.0141459 0 -0.00531693)
(-0.0101203 0 -0.00315178)
(-0.00765063 0 -0.00210317)
(-0.00594592 0 -0.00152775)
(-0.00470406 0 -0.00118215)
(-0.00376313 0 -0.000951831)
(-0.00302135 0 -0.000784755)
(-0.00241783 0 -0.000657061)
(-0.00191615 0 -0.00055596)
(-0.00149336 0 -0.000473281)
(-0.00113447 0 -0.000403227)
(-0.00082971 0 -0.000341499)
(-0.000572357 0 -0.000284981)
(-0.000356462 0 -0.000231661)
(-0.000178821 0 -0.00017992)
(-8.43064e-05 0 -0.000127162)
(-2.09244e-05 0 7.24787e-05)
(-4.21021e-05 0 7.05346e-05)
(-6.84074e-05 0 5.15064e-05)
(-8.15267e-05 0 1.84784e-05)
(-7.59492e-05 0 -2.63708e-05)
(-4.6847e-05 0 -8.15361e-05)
(1.0485e-05 0 -0.000146011)
(0.000100442 0 -0.000219063)
(0.000227131 0 -0.000300089)
(0.000394397 0 -0.000388424)
(0.000605729 0 -0.000483146)
(0.000864107 0 -0.000582928)
(0.00117178 0 -0.000685925)
(0.00152996 0 -0.000789721)
(0.00193859 0 -0.000891336)
(0.00239599 0 -0.000987313)
(0.0028987 0 -0.00107389)
(0.00344131 0 -0.00114722)
(0.00401652 0 -0.00120373)
(0.00461527 0 -0.00124037)
(0.00522716 0 -0.00125498)
(0.00584095 0 -0.00124647)
(0.00644512 0 -0.00121498)
(0.00702855 0 -0.00116183)
(0.00758106 0 -0.00108941)
(0.00809394 0 -0.00100096)
(0.00856027 0 -0.000900246)
(0.00897511 0 -0.000791299)
(0.00933552 0 -0.00067811)
(0.00964048 0 -0.000564399)
(0.00989066 0 -0.000453439)
(0.0100882 0 -0.000347944)
(0.0102364 0 -0.000250021)
(0.0103394 0 -0.000161163)
(0.0104019 0 -8.22939e-05)
(0.0104288 0 -1.38228e-05)
(0.0104253 0 4.43031e-05)
(0.0103962 0 9.24807e-05)
(0.0103462 0 0.000131339)
(0.0102795 0 0.000161661)
(0.0102002 0 0.000184324)
(0.0101116 0 0.00020025)
(0.0100168 0 0.000210362)
(0.00991825 0 0.000215552)
(0.00981814 0 0.000216656)
(0.00971821 0 0.00021444)
(0.00961988 0 0.00020959)
(0.00952425 0 0.000202707)
(0.00943214 0 0.000194311)
(0.00934417 0 0.000184844)
(0.00926075 0 0.000174674)
(0.00918215 0 0.000164102)
(0.00910849 0 0.000153372)
(0.0090398 0 0.000142677)
(0.00897604 0 0.000132163)
(0.00891709 0 0.000121942)
(0.00886281 0 0.000112093)
(0.008813 0 0.000102668)
(0.00876746 0 9.37011e-05)
(0.00872598 0 8.52064e-05)
(0.00868834 0 7.71857e-05)
(0.00865433 0 6.96297e-05)
(0.00862372 0 6.25211e-05)
(0.00859633 0 5.58359e-05)
(0.00857196 0 4.95454e-05)
(0.00855043 0 4.36175e-05)
(0.0085316 0 3.80172e-05)
(0.00851531 0 3.27078e-05)
(0.00850145 0 2.76509e-05)
(0.0084899 0 2.28072e-05)
(0.00848058 0 1.81365e-05)
(0.00847342 0 1.35979e-05)
(0.00846837 0 9.14974e-06)
(0.00846541 0 4.74974e-06)
(0.00846451 0 3.54705e-07)
(0.00846569 0 -4.07638e-06)
(0.00846899 0 -8.58799e-06)
(0.00847445 0 -1.32285e-05)
(0.00848215 0 -1.80512e-05)
(0.0084922 0 -2.31134e-05)
(0.00850472 0 -2.84773e-05)
(0.00851987 0 -3.42103e-05)
(0.00853786 0 -4.03865e-05)
(0.00855891 0 -4.70878e-05)
(0.00858328 0 -5.44059e-05)
(0.00861131 0 -6.24433e-05)
(0.00864335 0 -7.13168e-05)
(0.00867984 0 -8.11592e-05)
(0.00872125 0 -9.21232e-05)
(0.00876817 0 -0.000104385)
(0.00882124 0 -0.000118149)
(0.00888123 0 -0.000133656)
(0.00894901 0 -0.000151186)
(0.00902559 0 -0.000171071)
(0.00911216 0 -0.000193709)
(0.00921009 0 -0.000219571)
(0.009321 0 -0.000249227)
(0.00944678 0 -0.000283367)
(0.00958966 0 -0.000322833)
(0.00975229 0 -0.000368659)
(0.00993783 0 -0.000422126)
(0.0101501 0 -0.000484836)
(0.0103937 0 -0.000558812)
(0.0106742 0 -0.000646636)
(0.0109986 0 -0.000751652)
(0.0113756 0 -0.000878257)
(0.0118164 0 -0.00103237)
(0.0123356 0 -0.00122217)
(0.0129528 0 -0.00145946)
(0.0136952 0 -0.00176215)
(0.0146022 0 -0.00215931)
(0.0157324 0 -0.00270202)
(0.0171732 0 -0.00348639)
(0.0190494 0 -0.00469773)
(0.0215349 0 -0.00669071)
(0.0248454 0 -0.0101712)
(0.0288723 0 -0.0166459)
(0.0313563 0 -0.0287509)
(0.0267709 0 -0.0463156)
(0.0139317 0 -0.0574512)
(-0.00286711 0 -0.0584781)
(-0.0166555 0 -0.0480431)
(-0.0215177 0 -0.0298698)
(-0.0189225 0 -0.0171848)
(-0.0147284 0 -0.0103152)
(-0.0113059 0 -0.00659465)
(-0.00876797 0 -0.00447693)
(-0.0068848 0 -0.00321912)
(-0.00546741 0 -0.00243466)
(-0.00437671 0 -0.00191548)
(-0.00351438 0 -0.00155153)
(-0.00281502 0 -0.0012836)
(-0.00223603 0 -0.00107786)
(-0.00174941 0 -0.000913434)
(-0.00133661 0 -0.000776613)
(-0.000985409 0 -0.00065795)
(-0.0006873 0 -0.000550932)
(-0.000434537 0 -0.000451271)
(-0.000221856 0 -0.00035609)
(-0.000103562 0 -0.000264303)
(-2.08785e-05 0 0.000101265)
(-4.24205e-05 0 9.82196e-05)
(-6.94123e-05 0 7.01187e-05)
(-8.28102e-05 0 2.11292e-05)
(-7.66315e-05 0 -4.56414e-05)
(-4.5536e-05 0 -0.000128046)
(1.57331e-05 0 -0.000224651)
(0.000112157 0 -0.00033441)
(0.000248473 0 -0.000456459)
(0.000429189 0 -0.000589825)
(0.000658487 0 -0.000733146)
(0.000940047 0 -0.000884445)
(0.00127678 0 -0.00104096)
(0.00167052 0 -0.00119903)
(0.00212161 0 -0.00135412)
(0.0026286 0 -0.00150095)
(0.00318791 0 -0.00163369)
(0.00379365 0 -0.00174641)
(0.00443762 0 -0.00183351)
(0.00510947 0 -0.00189023)
(0.00579716 0 -0.00191317)
(0.00648757 0 -0.00190063)
(0.00716729 0 -0.00185282)
(0.00782336 0 -0.00177181)
(0.00844401 0 -0.00166132)
(0.00901926 0 -0.00152638)
(0.00954128 0 -0.00137283)
(0.0100046 0 -0.00120688)
(0.0104062 0 -0.00103464)
(0.0107451 0 -0.000861793)
(0.0110225 0 -0.000693307)
(0.0112409 0 -0.000533281)
(0.0114045 0 -0.00038487)
(0.011518 0 -0.000250301)
(0.0115868 0 -0.000130928)
(0.0116166 0 -2.73325e-05)
(0.0116132 0 6.05678e-05)
(0.0115819 0 0.000133388)
(0.0115281 0 0.000192107)
(0.0114565 0 0.000237927)
(0.0113713 0 0.000272192)
(0.0112764 0 0.000296304)
(0.0111749 0 0.000311664)
(0.0110696 0 0.000319624)
(0.0109629 0 0.000321446)
(0.0108565 0 0.000318285)
(0.0107519 0 0.000311171)
(0.0106504 0 0.000301011)
(0.0105527 0 0.000288584)
(0.0104595 0 0.000274551)
(0.0103713 0 0.000259464)
(0.0102882 0 0.000243772)
(0.0102104 0 0.000227841)
(0.0101379 0 0.000211956)
(0.0100707 0 0.000196338)
(0.0100086 0 0.000181153)
(0.00995139 0 0.000166517)
(0.00989897 0 0.000152511)
(0.00985107 0 0.000139182)
(0.00980747 0 0.000126552)
(0.00976793 0 0.000114625)
(0.00973222 0 0.000103387)
(0.00970011 0 9.28102e-05)
(0.00967139 0 8.28608e-05)
(0.00964587 0 7.34956e-05)
(0.00962335 0 6.46666e-05)
(0.00960367 0 5.63219e-05)
(0.00958669 0 4.84067e-05)
(0.00957227 0 4.0864e-05)
(0.0095603 0 3.36353e-05)
(0.00955068 0 2.66608e-05)
(0.00954336 0 1.98794e-05)
(0.00953828 0 1.32291e-05)
(0.0095354 0 6.6469e-06)
(0.00953472 0 6.8689e-08)
(0.00953626 0 -6.56843e-06)
(0.00954003 0 -1.33309e-05)
(0.00954612 0 -2.02921e-05)
(0.00955459 0 -2.75315e-05)
(0.00956557 0 -3.51347e-05)
(0.00957919 0 -4.31942e-05)
(0.00959562 0 -5.18107e-05)
(0.00961508 0 -6.10946e-05)
(0.00963781 0 -7.11683e-05)
(0.00966409 0 -8.2168e-05)
(0.00969426 0 -9.4247e-05)
(0.00972872 0 -0.000107579)
(0.0097679 0 -0.000122361)
(0.00981233 0 -0.000138819)
(0.0098626 0 -0.000157216)
(0.0099194 0 -0.000177855)
(0.00998351 0 -0.000201088)
(0.0100558 0 -0.000227331)
(0.0101374 0 -0.000257073)
(0.0102295 0 -0.000290895)
(0.0103335 0 -0.000329492)
(0.0104511 0 -0.000373695)
(0.010584 0 -0.000424512)
(0.0107347 0 -0.000483169)
(0.0109057 0 -0.000551171)
(0.0111003 0 -0.000630381)
(0.011322 0 -0.000723127)
(0.0115755 0 -0.000832352)
(0.0118662 0 -0.000961826)
(0.0122007 0 -0.00111645)
(0.0125875 0 -0.00130272)
(0.0130368 0 -0.00152947)
(0.0135622 0 -0.00180899)
(0.014181 0 -0.00215909)
(0.0149164 0 -0.00260648)
(0.0157989 0 -0.00319304)
(0.0168685 0 -0.00398691)
(0.0181733 0 -0.00510236)
(0.0197602 0 -0.00673199)
(0.0216461 0 -0.00919427)
(0.023735 0 -0.0130004)
(0.0255469 0 -0.0189102)
(0.0255471 0 -0.0276425)
(0.0210944 0 -0.038058)
(0.0117544 0 -0.0449759)
(-3.33441e-05 0 -0.0456665)
(-0.0100574 0 -0.039294)
(-0.0147737 0 -0.0286627)
(-0.0148064 0 -0.0195342)
(-0.0129121 0 -0.0132663)
(-0.0107179 0 -0.00919805)
(-0.00874324 0 -0.00657271)
(-0.00709541 0 -0.00486068)
(-0.00575637 0 -0.003719)
(-0.00467239 0 -0.00293335)
(-0.00378757 0 -0.00237336)
(-0.00305578 0 -0.00195972)
(-0.00244242 0 -0.00164302)
(-0.00192247 0 -0.0013914)
(-0.00147831 0 -0.00118354)
(-0.00109778 0 -0.00100477)
(-0.000772108 0 -0.000845007)
(-0.0004929 0 -0.00069759)
(-0.000254238 0 -0.00055844)
(-0.000119232 0 -0.000426512)
(-2.27249e-05 0 0.000130642)
(-4.65746e-05 0 0.000127285)
(-7.76878e-05 0 9.04406e-05)
(-9.54211e-05 0 2.54257e-05)
(-9.33919e-05 0 -6.37372e-05)
(-6.58251e-05 0 -0.000174307)
(-6.93779e-06 0 -0.000304476)
(8.88795e-05 0 -0.000452969)
(0.000227063 0 -0.000618705)
(0.000412924 0 -0.000800478)
(0.000651528 0 -0.000996537)
(0.000947504 0 -0.00120428)
(0.00130473 0 -0.00141998)
(0.00172595 0 -0.00163866)
(0.00221227 0 -0.00185406)
(0.00276276 0 -0.00205877)
(0.00337393 0 -0.00224455)
(0.0040395 0 -0.00240293)
(0.0047503 0 -0.00252582)
(0.00549445 0 -0.00260636)
(0.00625791 0 -0.00263958)
(0.00702525 0 -0.00262302)
(0.00778064 0 -0.00255697)
(0.00850888 0 -0.00244442)
(0.00919626 0 -0.00229075)
(0.00983134 0 -0.00210317)
(0.0104053 0 -0.00188999)
(0.0109124 0 -0.00166001)
(0.0113493 0 -0.00142182)
(0.0117158 0 -0.00118332)
(0.0120135 0 -0.000951371)
(0.012246 0 -0.000731575)
(0.0124181 0 -0.000528194)
(0.0125356 0 -0.000344184)
(0.0126049 0 -0.000181294)
(0.0126325 0 -4.02182e-05)
(0.0126247 0 7.9235e-05)
(0.0125878 0 0.000177973)
(0.0125273 0 0.000257402)
(0.0124487 0 0.000319225)
(0.0123563 0 0.000365322)
(0.0122543 0 0.000397642)
(0.012146 0 0.000418124)
(0.0120344 0 0.000428621)
(0.0119217 0 0.000430862)
(0.0118099 0 0.000426418)
(0.0117005 0 0.000416689)
(0.0115946 0 0.000402899)
(0.0114931 0 0.000386098)
(0.0113965 0 0.000367174)
(0.0113052 0 0.000346865)
(0.0112194 0 0.000325774)
(0.0111393 0 0.000304385)
(0.0110648 0 0.00028308)
(0.0109957 0 0.000262149)
(0.0109321 0 0.00024181)
(0.0108736 0 0.000222218)
(0.01082 0 0.000203477)
(0.0107711 0 0.000185649)
(0.0107266 0 0.000168761)
(0.0106863 0 0.000152815)
(0.0106499 0 0.00013779)
(0.0106173 0 0.000123652)
(0.0105881 0 0.000110351)
(0.0105622 0 9.78305e-05)
(0.0105394 0 8.60244e-05)
(0.0105195 0 7.48633e-05)
(0.0105023 0 6.42735e-05)
(0.0104878 0 5.41787e-05)
(0.0104758 0 4.45004e-05)
(0.0104662 0 3.51584e-05)
(0.0104589 0 2.60711e-05)
(0.0104539 0 1.71554e-05)
(0.0104512 0 8.32694e-06)
(0.0104508 0 -4.99838e-07)
(0.0104526 0 -9.41067e-06)
(0.0104567 0 -1.84959e-05)
(0.0104632 0 -2.78542e-05)
(0.0104722 0 -3.75919e-05)
(0.0104837 0 -4.78233e-05)
(0.010498 0 -5.86716e-05)
(0.0105151 0 -7.02713e-05)
(0.0105353 0 -8.27696e-05)
(0.010559 0 -9.63294e-05)
(0.0105862 0 -0.000111132)
(0.0106175 0 -0.000127382)
(0.0106531 0 -0.000145308)
(0.0106936 0 -0.000165174)
(0.0107394 0 -0.000187278)
(0.0107912 0 -0.000211967)
(0.0108496 0 -0.000239638)
(0.0109154 0 -0.000270757)
(0.0109896 0 -0.000305867)
(0.011073 0 -0.000345609)
(0.0111671 0 -0.00039074)
(0.0112729 0 -0.000442161)
(0.0113923 0 -0.00050095)
(0.011527 0 -0.000568407)
(0.0116791 0 -0.000646111)
(0.011851 0 -0.000735992)
(0.0120458 0 -0.000840431)
(0.0122668 0 -0.000962395)
(0.012518 0 -0.00110562)
(0.0128043 0 -0.00127489)
(0.0131314 0 -0.00147638)
(0.0135063 0 -0.00171827)
(0.0139374 0 -0.00201154)
(0.0144351 0 -0.00237136)
(0.0150119 0 -0.00281913)
(0.0156825 0 -0.00338588)
(0.0164636 0 -0.00411755)
(0.0173712 0 -0.00508341)
(0.0184135 0 -0.00638813)
(0.019574 0 -0.00818745)
(0.0207769 0 -0.0107026)
(0.0218193 0 -0.0142215)
(0.0222346 0 -0.0190433)
(0.021082 0 -0.0252137)
(0.0171174 0 -0.0317543)
(0.0102524 0 -0.0360931)
(0.0019673 0 -0.0365569)
(-0.00537764 0 -0.0326482)
(-0.00956259 0 -0.0260704)
(-0.0108052 0 -0.019653)
(-0.0103716 0 -0.0145507)
(-0.00925619 0 -0.0107954)
(-0.00796466 0 -0.0081128)
(-0.00672112 0 -0.00621354)
(-0.00561004 0 -0.00486303)
(-0.00464886 0 -0.00388941)
(-0.00382662 0 -0.00317335)
(-0.00312372 0 -0.00263385)
(-0.00252047 0 -0.00221594)
(-0.00200011 0 -0.0018819)
(-0.00154951 0 -0.00160539)
(-0.00115896 0 -0.00136781)
(-0.000821041 0 -0.00115609)
(-0.00052796 0 -0.000961391)
(-0.000274207 0 -0.00077832)
(-0.000129264 0 -0.000605001)
(-2.71131e-05 0 0.000164249)
(-5.60723e-05 0 0.000161859)
(-9.60189e-05 0 0.000117122)
(-0.000123371 0 3.651e-05)
(-0.000131411 0 -7.50571e-05)
(-0.000113999 0 -0.000214303)
(-6.48206e-05 0 -0.000379122)
(2.24124e-05 0 -0.000568144)
(0.000153948 0 -0.000780182)
(0.000336065 0 -0.0010139)
(0.000574962 0 -0.00126727)
(0.000876525 0 -0.00153714)
(0.00124597 0 -0.00181884)
(0.00168734 0 -0.00210597)
(0.00220295 0 -0.00239031)
(0.0027927 0 -0.00266197)
(0.00345349 0 -0.00290982)
(0.00417873 0 -0.00312219)
(0.00495814 0 -0.00328788)
(0.00577795 0 -0.00339727)
(0.00662153 0 -0.00344341)
(0.00747048 0 -0.0034228)
(0.00830586 0 -0.00333587)
(0.00910956 0 -0.00318682)
(0.00986547 0 -0.00298315)
(0.0105604 0 -0.00273481)
(0.0111845 0 -0.00245321)
(0.0117316 0 -0.00215026)
(0.0121989 0 -0.0018375)
(0.0125865 0 -0.00152542)
(0.0128973 0 -0.00122299)
(0.0131361 0 -0.000937447)
(0.0133089 0 -0.000674199)
(0.0134228 0 -0.000436893)
(0.0134853 0 -0.000227592)
(0.0135039 0 -4.6991e-05)
(0.0134859 0 0.000105349)
(0.0134381 0 0.000230751)
(0.0133668 0 0.000331163)
(0.0132776 0 0.000408897)
(0.0131753 0 0.000466471)
(0.0130643 0 0.000506468)
(0.0129479 0 0.00053143)
(0.0128291 0 0.000543772)
(0.0127103 0 0.00054573)
(0.0125933 0 0.00053932)
(0.0124795 0 0.000526332)
(0.0123699 0 0.00050832)
(0.0122654 0 0.000486611)
(0.0121664 0 0.000462322)
(0.0120732 0 0.000436377)
(0.0119861 0 0.000409528)
(0.0119048 0 0.000382375)
(0.0118295 0 0.000355386)
(0.0117599 0 0.00032892)
(0.0116959 0 0.000303242)
(0.0116372 0 0.000278539)
(0.0115835 0 0.000254934)
(0.0115346 0 0.000232498)
(0.0114902 0 0.000211261)
(0.0114501 0 0.00019122)
(0.0114139 0 0.000172347)
(0.0113814 0 0.000154594)
(0.0113524 0 0.000137897)
(0.0113268 0 0.000122181)
(0.0113042 0 0.000107364)
(0.0112845 0 9.33566e-05)
(0.0112676 0 8.00651e-05)
(0.0112533 0 6.73931e-05)
(0.0112415 0 5.52415e-05)
(0.0112321 0 4.35094e-05)
(0.0112251 0 3.20942e-05)
(0.0112203 0 2.08913e-05)
(0.0112178 0 9.79483e-06)
(0.0112176 0 -1.30279e-06)
(0.0112196 0 -1.25107e-05)
(0.0112239 0 -2.39441e-05)
(0.0112306 0 -3.57271e-05)
(0.0112397 0 -4.79925e-05)
(0.0112514 0 -6.08831e-05)
(0.0112658 0 -7.45528e-05)
(0.0112831 0 -8.91691e-05)
(0.0113035 0 -0.000104916)
(0.0113273 0 -0.000121995)
(0.0113546 0 -0.000140633)
(0.011386 0 -0.000161082)
(0.0114217 0 -0.000183628)
(0.0114621 0 -0.000208594)
(0.0115079 0 -0.00023635)
(0.0115595 0 -0.000267319)
(0.0116176 0 -0.000301993)
(0.0116829 0 -0.000340938)
(0.0117564 0 -0.000384818)
(0.0118389 0 -0.000434409)
(0.0119316 0 -0.000490627)
(0.0120357 0 -0.000554557)
(0.0121526 0 -0.000627493)
(0.012284 0 -0.000710988)
(0.0124319 0 -0.000806915)
(0.0125982 0 -0.000917557)
(0.0127857 0 -0.00104571)
(0.012997 0 -0.00119484)
(0.0132355 0 -0.00136929)
(0.0135051 0 -0.00157454)
(0.0138102 0 -0.00181763)
(0.0141558 0 -0.00210775)
(0.0145476 0 -0.00245703)
(0.0149919 0 -0.00288178)
(0.0154952 0 -0.00340431)
(0.0160633 0 -0.0040555)
(0.0166994 0 -0.00487844)
(0.0173994 0 -0.00593326)
(0.0181436 0 -0.00730246)
(0.0188812 0 -0.00909466)
(0.0195033 0 -0.011441)
(0.0198041 0 -0.0144732)
(0.0194255 0 -0.0182575)
(0.0178179 0 -0.0226309)
(0.0144137 0 -0.0268829)
(0.00927427 0 -0.0296464)
(0.00331615 0 -0.0299499)
(-0.00213426 0 -0.0275279)
(-0.00572282 0 -0.0233193)
(-0.00743227 0 -0.0188082)
(-0.00782936 0 -0.0148241)
(-0.00748621 0 -0.0116006)
(-0.00678943 0 -0.00910367)
(-0.00596621 0 -0.00721086)
(-0.00513783 0 -0.00578693)
(-0.00436114 0 -0.00471325)
(-0.00365725 0 -0.00389588)
(-0.00302946 0 -0.00326396)
(-0.00247336 0 -0.00276522)
(-0.00198198 0 -0.00236133)
(-0.00154838 0 -0.00202413)
(-0.00116674 0 -0.00173294)
(-0.000832102 0 -0.00147276)
(-0.00053826 0 -0.00123308)
(-0.000280897 0 -0.0010073)
(-0.000132839 0 -0.000792391)
(-3.44751e-05 0 0.000206151)
(-7.17855e-05 0 0.000206663)
(-0.000126001 0 0.000155534)
(-0.000168977 0 6.04124e-05)
(-0.000193712 0 -7.29123e-05)
(-0.000193772 0 -0.000240702)
(-0.000162277 0 -0.000440679)
(-9.22213e-05 0 -0.000671464)
(2.36103e-05 0 -0.000932087)
(0.000192643 0 -0.00122118)
(0.000422482 0 -0.00153662)
(0.000720654 0 -0.00187485)
(0.00109416 0 -0.00223034)
(0.00154885 0 -0.00259517)
(0.00208873 0 -0.00295895)
(0.00271504 0 -0.00330886)
(0.00342537 0 -0.00363018)
(0.00421295 0 -0.00390723)
(0.00506621 0 -0.00412476)
(0.00596897 0 -0.00426952)
(0.00690126 0 -0.0043319)
(0.0078407 0 -0.00430713)
(0.00876429 0 -0.00419579)
(0.00965018 0 -0.00400374)
(0.0104792 0 -0.00374125)
(0.0112361 0 -0.00342182)
(0.01191 0 -0.00306079)
(0.0124943 0 -0.00267392)
(0.0129869 0 -0.00227628)
(0.0133891 0 -0.00188136)
(0.0137052 0 -0.00150055)
(0.0139416 0 -0.0011428)
(0.0141063 0 -0.000814675)
(0.0142078 0 -0.000520415)
(0.014255 0 -0.000262251)
(0.0142568 0 -4.07078e-05)
(0.0142215 0 0.000145101)
(0.0141566 0 0.000297102)
(0.014069 0 0.000417937)
(0.0139648 0 0.000510676)
(0.013849 0 0.000578599)
(0.013726 0 0.00062503)
(0.0135994 0 0.000653197)
(0.0134719 0 0.000666136)
(0.013346 0 0.00066663)
(0.0132232 0 0.000657174)
(0.0131048 0 0.000639958)
(0.0129918 0 0.000616873)
(0.0128847 0 0.000589523)
(0.0127839 0 0.000559248)
(0.0126896 0 0.000527149)
(0.0126017 0 0.000494114)
(0.0125203 0 0.000460851)
(0.0124451 0 0.000427904)
(0.0123758 0 0.00039569)
(0.0123123 0 0.000364509)
(0.0122543 0 0.000334572)
(0.0122013 0 0.000306015)
(0.0121532 0 0.000278912)
(0.0121096 0 0.000253289)
(0.0120703 0 0.000229135)
(0.0120349 0 0.000206408)
(0.0120032 0 0.000185045)
(0.011975 0 0.000164965)
(0.01195 0 0.000146073)
(0.011928 0 0.000128268)
(0.0119089 0 0.00011144)
(0.0118926 0 9.5475e-05)
(0.0118788 0 8.02551e-05)
(0.0118674 0 6.56606e-05)
(0.0118584 0 5.15695e-05)
(0.0118517 0 3.78579e-05)
(0.0118472 0 2.44001e-05)
(0.0118449 0 1.10684e-05)
(0.0118448 0 -2.26676e-06)
(0.0118469 0 -1.5738e-05)
(0.0118513 0 -2.9485e-05)
(0.0118579 0 -4.36568e-05)
(0.0118669 0 -5.84121e-05)
(0.0118785 0 -7.39211e-05)
(0.0118926 0 -9.0367e-05)
(0.0119096 0 -0.000107949)
(0.0119295 0 -0.000126885)
(0.0119527 0 -0.000147416)
(0.0119794 0 -0.000169808)
(0.01201 0 -0.000194361)
(0.0120447 0 -0.000221411)
(0.012084 0 -0.000251337)
(0.0121283 0 -0.000284574)
(0.0121782 0 -0.000321617)
(0.0122343 0 -0.000363036)
(0.0122973 0 -0.000409491)
(0.0123679 0 -0.000461747)
(0.012447 0 -0.000520697)
(0.0125355 0 -0.000587391)
(0.0126346 0 -0.000663066)
(0.0127455 0 -0.000749187)
(0.0128696 0 -0.000847505)
(0.0130084 0 -0.000960117)
(0.0131638 0 -0.00108956)
(0.0133376 0 -0.00123892)
(0.0135322 0 -0.00141198)
(0.0137499 0 -0.00161343)
(0.0139933 0 -0.00184914)
(0.0142654 0 -0.00212651)
(0.0145689 0 -0.00245502)
(0.0149069 0 -0.00284688)
(0.0152814 0 -0.00331805)
(0.0156935 0 -0.00388949)
(0.0161412 0 -0.00458884)
(0.0166173 0 -0.00545234)
(0.0171048 0 -0.00652676)
(0.0175694 0 -0.00787025)
(0.0179481 0 -0.00954983)
(0.0181333 0 -0.0116313)
(0.0179547 0 -0.0141547)
(0.017165 0 -0.0170839)
(0.0154548 0 -0.0202168)
(0.0125778 0 -0.0230629)
(0.0086429 0 -0.0248647)
(0.00421944 0 -0.025063)
(0.000110502 0 -0.0235365)
(-0.00292836 0 -0.0207622)
(-0.00473101 0 -0.0175651)
(-0.00555446 0 -0.0145042)
(-0.00571216 0 -0.0118375)
(-0.00546852 0 -0.00963263)
(-0.00501098 0 -0.00786345)
(-0.00445965 0 -0.0064659)
(-0.00388531 0 -0.00536796)
(-0.00332632 0 -0.00450337)
(-0.00280136 0 -0.00381644)
(-0.00231801 0 -0.0032624)
(-0.00187807 0 -0.0028061)
(-0.00148074 0 -0.00242025)
(-0.00112444 0 -0.00208394)
(-0.000807165 0 -0.00178135)
(-0.000524873 0 -0.00150097)
(-0.000274897 0 -0.00123527)
(-0.000130268 0 -0.000980058)
(-4.49569e-05 0 0.000260693)
(-9.40082e-05 0 0.000266794)
(-0.000168194 0 0.000211488)
(-0.000233079 0 0.000103656)
(-0.000281437 0 -5.00691e-05)
(-0.00030662 0 -0.00024557)
(-0.000301158 0 -0.000480554)
(-0.000257226 0 -0.000753861)
(-0.000166581 0 -0.00106482)
(-2.03745e-05 0 -0.0014126)
(0.00019072 0 -0.00179516)
(0.000476243 0 -0.00220864)
(0.000845533 0 -0.00264683)
(0.00130689 0 -0.00310035)
(0.00186663 0 -0.00355634)
(0.00252794 0 -0.00399853)
(0.00328958 0 -0.00440774)
(0.00414476 0 -0.00476314)
(0.0050804 0 -0.00504411)
(0.00607725 0 -0.0052326)
(0.00711092 0 -0.00531544)
(0.00815381 0 -0.00528612)
(0.00917758 0 -0.00514558)
(0.0101556 0 -0.00490191)
(0.0110648 0 -0.00456916)
(0.0118875 0 -0.00416549)
(0.0126115 0 -0.00371122)
(0.0132306 0 -0.00322696)
(0.0137433 0 -0.00273203)
(0.0141528 0 -0.00224346)
(0.0144656 0 -0.00177529)
(0.0146902 0 -0.00133831)
(0.0148367 0 -0.000940152)
(0.0149159 0 -0.000585505)
(0.0149384 0 -0.000276536)
(0.0149146 0 -1.33469e-05)
(0.014854 0 0.000205669)
(0.0147649 0 0.000383283)
(0.0146549 0 0.000523046)
(0.0145305 0 0.000628968)
(0.014397 0 0.000705255)
(0.0142587 0 0.000756091)
(0.0141192 0 0.000785486)
(0.0139812 0 0.000797163)
(0.0138468 0 0.000794497)
(0.0137173 0 0.00078048)
(0.0135939 0 0.000757713)
(0.0134773 0 0.000728423)
(0.0133677 0 0.000694479)
(0.0132654 0 0.000657431)
(0.0131704 0 0.000618538)
(0.0130824 0 0.000578811)
(0.0130014 0 0.000539042)
(0.0129269 0 0.000499839)
(0.0128587 0 0.000461657)
(0.0127964 0 0.00042482)
(0.0127396 0 0.000389552)
(0.012688 0 0.000355989)
(0.0126413 0 0.000324199)
(0.0125991 0 0.000294197)
(0.0125611 0 0.000265957)
(0.012527 0 0.00023942)
(0.0124966 0 0.000214502)
(0.0124695 0 0.000191102)
(0.0124456 0 0.000169104)
(0.0124246 0 0.000148384)
(0.0124064 0 0.000128811)
(0.0123908 0 0.000110249)
(0.0123777 0 9.25588e-05)
(0.0123669 0 7.55996e-05)
(0.0123584 0 5.92282e-05)
(0.0123521 0 4.32997e-05)
(0.0123479 0 2.76674e-05)
(0.0123458 0 1.21822e-05)
(0.0123458 0 -3.30701e-06)
(0.0123479 0 -1.89559e-05)
(0.0123521 0 -3.49277e-05)
(0.0123585 0 -5.1395e-05)
(0.0123671 0 -6.85411e-05)
(0.0123782 0 -8.65618e-05)
(0.0123917 0 -0.000105668)
(0.0124079 0 -0.000126088)
(0.0124269 0 -0.000148071)
(0.012449 0 -0.000171893)
(0.0124743 0 -0.000197858)
(0.0125033 0 -0.000226306)
(0.0125361 0 -0.000257619)
(0.0125733 0 -0.000292226)
(0.0126151 0 -0.000330617)
(0.0126621 0 -0.000373349)
(0.0127148 0 -0.000421059)
(0.0127737 0 -0.000474481)
(0.0128396 0 -0.000534466)
(0.0129132 0 -0.000601999)
(0.0129953 0 -0.000678232)
(0.0130868 0 -0.000764514)
(0.0131887 0 -0.000862435)
(0.0133021 0 -0.000973877)