/*--------------------------------*- C++ -*----------------------------------*\
| =========                 |                                                 |
| \\      /  F ield         | OpenFOAM: The Open Source CFD Toolbox           |
|  \\    /   O peration     | Version:  2306                                  |
|   \\  /    A nd           | Website:  www.openfoam.com                      |
|    \\/     M anipulation  |                                                 |
\*---------------------------------------------------------------------------*/
FoamFile
{
    version     2.0;
    format      ascii;
    arch        "LSB;label=32;scalar=64";
    class       volVectorField;
    location    "10";
    object      UMean;
}
// * * * * * * * * * * * * * * * * * * * * * * * * * * * * * * * * * * * * * //

dimensions      [0 1 -1 0 0 0 0];

internalField   nonuniform List<vector> 
4480
(
(3.68608e-05 0 -3.72034e-05)
(7.85096e-05 0 -5.05702e-05)
(0.000157964 0 -6.07829e-05)
(0.000251773 0 -7.12371e-05)
(0.000358951 0 -8.15387e-05)
(0.000480181 0 -9.16868e-05)
(0.000615757 0 -0.000101952)
(0.000766053 0 -0.000112568)
(0.000931702 0 -0.000123662)
(0.00111346 0 -0.000135262)
(0.00131207 0 -0.000147302)
(0.00152808 0 -0.000159625)
(0.00176179 0 -0.000171993)
(0.00201308 0 -0.000184093)
(0.00228136 0 -0.000195554)
(0.00256545 0 -0.000205968)
(0.00286359 0 -0.000214912)
(0.00317339 0 -0.00022198)
(0.00349193 0 -0.000226811)
(0.00381577 0 -0.000229119)
(0.00414116 0 -0.000228722)
(0.00446413 0 -0.000225557)
(0.00478074 0 -0.000219685)
(0.00508719 0 -0.000211289)
(0.00538005 0 -0.000200659)
(0.00565635 0 -0.000188167)
(0.00591373 0 -0.000174238)
(0.00615044 0 -0.000159321)
(0.00636541 0 -0.000143861)
(0.00655815 0 -0.000128276)
(0.00672879 0 -0.000112935)
(0.00687792 0 -9.81508e-05)
(0.00700654 0 -8.41718e-05)
(0.00711595 0 -7.11814e-05)
(0.00720767 0 -5.93021e-05)
(0.00728336 0 -4.86005e-05)
(0.00734473 0 -3.90946e-05)
(0.00739347 0 -3.07628e-05)
(0.00743123 0 -2.35546e-05)
(0.00745956 0 -1.73985e-05)
(0.0074799 0 -1.22078e-05)
(0.00749355 0 -7.89028e-06)
(0.00750169 0 -4.35168e-06)
(0.00750536 0 -1.49769e-06)
(0.00750545 0 7.61524e-07)
(0.00750276 0 2.51036e-06)
(0.00749795 0 3.82605e-06)
(0.00749157 0 4.77669e-06)
(0.0074841 0 5.4252e-06)
(0.00747592 0 5.82516e-06)
(0.00746735 0 6.02353e-06)
(0.00745863 0 6.05892e-06)
(0.00744999 0 5.96594e-06)
(0.00744156 0 5.7727e-06)
(0.00743348 0 5.50188e-06)
(0.00742584 0 5.17161e-06)
(0.00741871 0 4.79706e-06)
(0.00741214 0 4.39037e-06)
(0.00740618 0 3.96072e-06)
(0.00740084 0 3.51452e-06)
(0.00739614 0 3.05644e-06)
(0.00739211 0 2.5898e-06)
(0.00738874 0 2.11655e-06)
(0.00738605 0 1.63714e-06)
(0.00738405 0 1.15098e-06)
(0.00738274 0 6.56705e-07)
(0.00738214 0 1.52373e-07)
(0.00738226 0 -3.6477e-07)
(0.00738312 0 -8.98111e-07)
(0.00738475 0 -1.45167e-06)
(0.00738718 0 -2.03006e-06)
(0.00739044 0 -2.63816e-06)
(0.00739459 0 -3.28163e-06)
(0.00739968 0 -3.96659e-06)
(0.00740576 0 -4.70001e-06)
(0.00741292 0 -5.48962e-06)
(0.00742123 0 -6.3439e-06)
(0.0074308 0 -7.27258e-06)
(0.00744174 0 -8.28658e-06)
(0.00745417 0 -9.39811e-06)
(0.00746825 0 -1.06208e-05)
(0.00748413 0 -1.19701e-05)
(0.00750201 0 -1.34633e-05)
(0.00752211 0 -1.51202e-05)
(0.00754467 0 -1.69632e-05)
(0.00756997 0 -1.90179e-05)
(0.00759832 0 -2.13139e-05)
(0.0076301 0 -2.38851e-05)
(0.0076657 0 -2.6771e-05)
(0.00770561 0 -3.00173e-05)
(0.00775038 0 -3.36777e-05)
(0.00780061 0 -3.78151e-05)
(0.00785703 0 -4.25039e-05)
(0.00792048 0 -4.78323e-05)
(0.00799193 0 -5.39057e-05)
(0.00807249 0 -6.08507e-05)
(0.00816349 0 -6.88203e-05)
(0.0082665 0 -7.80005e-05)
(0.00838336 0 -8.86191e-05)
(0.00851626 0 -0.000100957)
(0.00866784 0 -0.000115361)
(0.00884127 0 -0.000132267)
(0.0090404 0 -0.00015222)
(0.00926994 0 -0.000175907)
(0.00953569 0 -0.000204194)
(0.00984483 0 -0.000238174)
(0.0102063 0 -0.000279205)
(0.0106312 0 -0.000328947)
(0.0111336 0 -0.000389346)
(0.0117307 0 -0.000462539)
(0.0124445 0 -0.000551003)
(0.0133047 0 -0.000659904)
(0.0143477 0 -0.000806033)
(0.0155879 0 -0.00103565)
(0.0170435 0 -0.0014751)
(0.0194861 0 -0.00275201)
(0.0268584 0 -0.00837689)
(0.0405173 0 -0.0311451)
(0.0444996 0 -0.0803266)
(0.0207772 0 -0.100896)
(-0.00924407 0 -0.103412)
(-0.0354244 0 -0.0841811)
(-0.0320057 0 -0.0321824)
(-0.0176767 0 -0.00878226)
(-0.0100822 0 -0.00277648)
(-0.00778617 0 -0.00137929)
(-0.00652757 0 -0.000916174)
(-0.00545262 0 -0.000697496)
(-0.00453973 0 -0.000573845)
(-0.00377787 0 -0.000488481)
(-0.00313363 0 -0.000420778)
(-0.00258098 0 -0.000364918)
(-0.00210195 0 -0.000318685)
(-0.00168306 0 -0.000280206)
(-0.00131416 0 -0.000247552)
(-0.000988159 0 -0.000218743)
(-0.000700073 0 -0.000191905)
(-0.000445365 0 -0.000166026)
(-0.000225308 0 -0.000141264)
(-0.000106113 0 -0.00010697)
(4.93947e-05 0 -7.85903e-05)
(0.000102993 0 -0.000104573)
(0.000200052 0 -0.000127677)
(0.000312733 0 -0.000149585)
(0.000440968 0 -0.000170938)
(0.000585761 0 -0.000192197)
(0.000747565 0 -0.000213867)
(0.000926909 0 -0.000236358)
(0.00112458 0 -0.000259906)
(0.00134148 0 -0.000284558)
(0.00157847 0 -0.000310169)
(0.00183619 0 -0.000336407)
(0.00211498 0 -0.000362769)
(0.00241471 0 -0.000388591)
(0.00273466 0 -0.000413087)
(0.00307345 0 -0.000435386)
(0.00342899 0 -0.000454585)
(0.00379847 0 -0.000469809)
(0.0041784 0 -0.000480282)
(0.00456473 0 -0.000485386)
(0.00495297 0 -0.000484723)
(0.00533843 0 -0.000478148)
(0.00571641 0 -0.000465791)
(0.0060824 0 -0.000448041)
(0.00643232 0 -0.000425516)
(0.00676264 0 -0.000399012)
(0.00707054 0 -0.00036944)
(0.00735396 0 -0.000337762)
(0.00761161 0 -0.00030493)
(0.00784291 0 -0.000271833)
(0.008048 0 -0.000239262)
(0.00822757 0 -0.000207881)
(0.00838278 0 -0.000178217)
(0.00851518 0 -0.000150661)
(0.00862654 0 -0.00012547)
(0.00871881 0 -0.000102785)
(0.00879401 0 -8.26411e-05)
(0.00885414 0 -6.49921e-05)
(0.00890113 0 -4.97278e-05)
(0.00893684 0 -3.66952e-05)
(0.00896295 0 -2.57118e-05)
(0.00898102 0 -1.65809e-05)
(0.00899243 0 -9.10052e-06)
(0.00899843 0 -3.0708e-06)
(0.00900008 0 1.69942e-06)
(0.00899832 0 5.38899e-06)
(0.00899393 0 8.16169e-06)
(0.00898759 0 1.01641e-05)
(0.00897985 0 1.15275e-05)
(0.00897119 0 1.23659e-05)
(0.00896197 0 1.27781e-05)
(0.00895251 0 1.28475e-05)
(0.00894305 0 1.26457e-05)
(0.00893378 0 1.22319e-05)
(0.00892487 0 1.16544e-05)
(0.00891641 0 1.09525e-05)
(0.00890851 0 1.01579e-05)
(0.00890122 0 9.29575e-06)
(0.0088946 0 8.38514e-06)
(0.00888869 0 7.44014e-06)
(0.0088835 0 6.47072e-06)
(0.00887906 0 5.48359e-06)
(0.00887538 0 4.48247e-06)
(0.00887247 0 3.46847e-06)
(0.00887035 0 2.44052e-06)
(0.00886903 0 1.39579e-06)
(0.00886853 0 3.29949e-07)
(0.00886887 0 -7.62842e-07)
(0.00887007 0 -1.88971e-06)
(0.00887216 0 -3.05905e-06)
(0.00887519 0 -4.28044e-06)
(0.0088792 0 -5.56445e-06)
(0.00888425 0 -6.92297e-06)
(0.00889039 0 -8.36908e-06)
(0.00889771 0 -9.91737e-06)
(0.0089063 0 -1.1584e-05)
(0.00891625 0 -1.33872e-05)
(0.00892768 0 -1.53473e-05)
(0.00894073 0 -1.74875e-05)
(0.00895555 0 -1.98334e-05)
(0.00897231 0 -2.24137e-05)
(0.00899121 0 -2.5261e-05)
(0.00901248 0 -2.84117e-05)
(0.00903637 0 -3.19075e-05)
(0.00906318 0 -3.57956e-05)
(0.00909322 0 -4.013e-05)
(0.00912689 0 -4.4973e-05)
(0.0091646 0 -5.03959e-05)
(0.00920685 0 -5.64817e-05)
(0.00925419 0 -6.33268e-05)
(0.00930726 0 -7.10439e-05)
(0.0093668 0 -7.97653e-05)
(0.00943365 0 -8.96472e-05)
(0.0095088 0 -0.000100875)
(0.00959337 0 -0.00011367)
(0.00968869 0 -0.000128297)
(0.00979632 0 -0.000145078)
(0.00991807 0 -0.000164403)
(0.0100561 0 -0.000186749)
(0.010213 0 -0.000212704)
(0.0103917 0 -0.000242999)
(0.0105961 0 -0.000278546)
(0.0108305 0 -0.000320496)
(0.0111005 0 -0.000370305)
(0.0114128 0 -0.000429838)
(0.0117758 0 -0.00050149)
(0.0122001 0 -0.00058837)
(0.0126994 0 -0.000694547)
(0.0132917 0 -0.000825442)
(0.0140014 0 -0.000988512)
(0.0148639 0 -0.00119486)
(0.0159342 0 -0.00146403)
(0.017301 0 -0.00183741)
(0.0191046 0 -0.00240685)
(0.0216113 0 -0.00337357)
(0.0255323 0 -0.00530229)
(0.0322066 0 -0.0103242)
(0.0393468 0 -0.0251217)
(0.035669 0 -0.0570031)
(0.0176372 0 -0.0745276)
(-0.0059034 0 -0.0761873)
(-0.0254117 0 -0.0597426)
(-0.0293769 0 -0.0262605)
(-0.021873 0 -0.0106176)
(-0.0150044 0 -0.00524108)
(-0.0110744 0 -0.00318767)
(-0.00862758 0 -0.00219589)
(-0.00690091 0 -0.00164587)
(-0.00561006 0 -0.00130894)
(-0.00460476 0 -0.00107926)
(-0.00379064 0 -0.000909636)
(-0.00311088 0 -0.000778723)
(-0.00253087 0 -0.000675044)
(-0.00202817 0 -0.000591024)
(-0.00158771 0 -0.000520921)
(-0.00119952 0 -0.000459957)
(-0.000856862 0 -0.000403971)
(-0.000553687 0 -0.000349402)
(-0.000288464 0 -0.000292363)
(-0.00013839 0 -0.000225679)
(5.6453e-05 0 -0.000155733)
(0.000119585 0 -0.000200252)
(0.000230072 0 -0.000242265)
(0.000356498 0 -0.000282567)
(0.000499592 0 -0.000322133)
(0.000660806 0 -0.000361839)
(0.000840836 0 -0.000402522)
(0.00104044 0 -0.000444848)
(0.00126064 0 -0.000489205)
(0.00150254 0 -0.000535654)
(0.00176719 0 -0.000583919)
(0.00205543 0 -0.00063338)
(0.00236771 0 -0.000683091)
(0.00270397 0 -0.000731815)
(0.00306349 0 -0.000778078)
(0.00344477 0 -0.000820239)
(0.00384549 0 -0.000856595)
(0.00426249 0 -0.000885491)
(0.00469179 0 -0.00090545)
(0.00512873 0 -0.000915298)
(0.00556817 0 -0.000914272)
(0.00600467 0 -0.000902093)
(0.00643276 0 -0.000878999)
(0.00684726 0 -0.000845724)
(0.00724345 0 -0.000803437)
(0.00761729 0 -0.000753642)
(0.00796557 0 -0.000698059)
(0.00828595 0 -0.000638504)
(0.00857702 0 -0.000576768)
(0.00883818 0 -0.000514529)
(0.00906964 0 -0.000453271)
(0.00927225 0 -0.000394245)
(0.00944739 0 -0.000338439)
(0.00959683 0 -0.000286583)
(0.00972265 0 -0.00023916)
(0.00982704 0 -0.000196433)
(0.00991231 0 -0.000158473)
(0.00998072 0 -0.000125192)
(0.0100345 0 -9.63863e-05)
(0.0100756 0 -7.17685e-05)
(0.010106 0 -5.09989e-05)
(0.0101275 0 -3.37081e-05)
(0.0101415 0 -1.95169e-05)
(0.0101495 0 -8.05135e-06)
(0.0101526 0 1.04705e-06)
(0.0101519 0 8.11307e-06)
(0.0101482 0 1.34533e-05)
(0.0101424 0 1.7344e-05)
(0.0101349 0 2.00295e-05)
(0.0101263 0 2.17239e-05)
(0.0101171 0 2.26117e-05)
(0.0101076 0 2.2851e-05)
(0.010098 0 2.25743e-05)
(0.0100885 0 2.18926e-05)
(0.0100794 0 2.08974e-05)
(0.0100708 0 1.9663e-05)
(0.0100627 0 1.8249e-05)
(0.0100552 0 1.67022e-05)
(0.0100485 0 1.50587e-05)
(0.0100424 0 1.33455e-05)
(0.0100372 0 1.15819e-05)
(0.0100327 0 9.78038e-06)
(0.010029 0 7.94814e-06)
(0.0100261 0 6.08763e-06)
(0.0100241 0 4.19733e-06)
(0.010023 0 2.27227e-06)
(0.0100227 0 3.04446e-07)
(0.0100233 0 -1.71679e-06)
(0.0100248 0 -3.80455e-06)
(0.0100274 0 -5.97424e-06)
(0.0100309 0 -8.24344e-06)
(0.0100355 0 -1.0632e-05)
(0.0100412 0 -1.3162e-05)
(0.0100481 0 -1.58578e-05)
(0.0100563 0 -1.87467e-05)
(0.0100659 0 -2.18588e-05)
(0.0100769 0 -2.52281e-05)
(0.0100896 0 -2.88929e-05)
(0.0101041 0 -3.2896e-05)
(0.0101205 0 -3.72851e-05)
(0.010139 0 -4.21141e-05)
(0.0101599 0 -4.74433e-05)
(0.0101834 0 -5.33409e-05)
(0.0102097 0 -5.98843e-05)
(0.0102392 0 -6.71617e-05)
(0.0102723 0 -7.52737e-05)
(0.0103094 0 -8.43358e-05)
(0.0103508 0 -9.44812e-05)
(0.0103973 0 -0.000105864)
(0.0104493 0 -0.000118663)
(0.0105075 0 -0.000133087)
(0.0105728 0 -0.000149382)
(0.010646 0 -0.000167837)
(0.0107283 0 -0.000188793)
(0.0108207 0 -0.000212661)
(0.0109248 0 -0.00023993)
(0.0110422 0 -0.00027119)
(0.0111748 0 -0.000307159)
(0.0113248 0 -0.000348714)
(0.011495 0 -0.000396933)
(0.0116886 0 -0.000453156)
(0.0119094 0 -0.000519055)
(0.0121619 0 -0.000596743)
(0.012452 0 -0.000688907)
(0.0127864 0 -0.000799014)
(0.0131739 0 -0.00093159)
(0.0136254 0 -0.00109266)
(0.0141551 0 -0.00129045)
(0.0147817 0 -0.0015366)
(0.015531 0 -0.00184845)
(0.0164397 0 -0.00225361)
(0.0175622 0 -0.00279991)
(0.0189788 0 -0.00357687)
(0.020805 0 -0.00475792)
(0.0232029 0 -0.00667896)
(0.0263771 0 -0.010021)
(0.0302167 0 -0.0162677)
(0.0324848 0 -0.0280595)
(0.027684 0 -0.0452853)
(0.014644 0 -0.0561457)
(-0.00232573 0 -0.0571402)
(-0.0163921 0 -0.0469106)
(-0.0214983 0 -0.0290274)
(-0.0191422 0 -0.01666)
(-0.0151572 0 -0.0100566)
(-0.011887 0 -0.00652601)
(-0.00944255 0 -0.00452994)
(-0.00760353 0 -0.00334348)
(-0.00619284 0 -0.00259755)
(-0.00508238 0 -0.00209738)
(-0.00418244 0 -0.00174185)
(-0.00343345 0 -0.0014774)
(-0.00279639 0 -0.00127359)
(-0.00224526 0 -0.00111144)
(-0.00176255 0 -0.000977873)
(-0.00133674 0 -0.000862978)
(-0.000959978 0 -0.000758665)
(-0.000624934 0 -0.000657946)
(-0.000327991 0 -0.000554026)
(-0.000154701 0 -0.000440114)
(6.11215e-05 0 -0.000241068)
(0.000129331 0 -0.000304213)
(0.000247709 0 -0.000364954)
(0.00038222 0 -0.000423932)
(0.000533984 0 -0.000482322)
(0.000704822 0 -0.00054136)
(0.000895711 0 -0.000602204)
(0.0011077 0 -0.000665762)
(0.00134208 0 -0.000732558)
(0.00160029 0 -0.000802659)
(0.00188366 0 -0.000875638)
(0.00219329 0 -0.000950563)
(0.0025299 0 -0.00102601)
(0.0028936 0 -0.00110012)
(0.00328378 0 -0.00117063)
(0.00369892 0 -0.00123506)
(0.00413655 0 -0.00129077)
(0.00459318 0 -0.00133521)
(0.00506435 0 -0.00136608)
(0.00554475 0 -0.00138155)
(0.00602846 0 -0.00138043)
(0.00650921 0 -0.00136226)
(0.0069807 0 -0.00132743)
(0.00743693 0 -0.00127706)
(0.00787251 0 -0.00121297)
(0.00828285 0 -0.00113749)
(0.00866437 0 -0.00105326)
(0.00901452 0 -0.000963088)
(0.00933181 0 -0.000869704)
(0.00961575 0 -0.000775661)
(0.0098667 0 -0.000683207)
(0.0100858 0 -0.000594223)
(0.0102746 0 -0.000510188)
(0.0104354 0 -0.000432183)
(0.0105704 0 -0.000360915)
(0.0106822 0 -0.000296756)
(0.0107733 0 -0.000239795)
(0.0108464 0 -0.000189889)
(0.0109038 0 -0.000146717)
(0.0109477 0 -0.000109835)
(0.0109803 0 -7.87241e-05)
(0.0110034 0 -5.28235e-05)
(0.0110186 0 -3.1559e-05)
(0.0110275 0 -1.43663e-05)
(0.0110313 0 -7.06707e-07)
(0.0110312 0 9.92205e-06)
(0.0110279 0 1.79788e-05)
(0.0110223 0 2.3876e-05)
(0.0110151 0 2.79783e-05)
(0.0110067 0 3.06043e-05)
(0.0109976 0 3.20288e-05)
(0.0109882 0 3.24859e-05)
(0.0109787 0 3.21731e-05)
(0.0109693 0 3.12548e-05)
(0.0109603 0 2.98666e-05)
(0.0109518 0 2.81187e-05)
(0.0109438 0 2.60994e-05)
(0.0109364 0 2.38782e-05)
(0.0109298 0 2.15087e-05)
(0.0109239 0 1.9031e-05)
(0.0109187 0 1.64735e-05)
(0.0109144 0 1.38553e-05)
(0.0109109 0 1.11869e-05)
(0.0109082 0 8.47224e-06)
(0.0109064 0 5.70925e-06)
(0.0109055 0 2.89073e-06)
(0.0109054 0 5.06981e-09)
(0.0109063 0 -2.96333e-06)
(0.0109081 0 -6.0337e-06)
(0.010911 0 -9.22867e-06)
(0.0109149 0 -1.25742e-05)
(0.0109198 0 -1.60994e-05)
(0.010926 0 -1.98371e-05)
(0.0109334 0 -2.38233e-05)
(0.0109421 0 -2.80983e-05)
(0.0109523 0 -3.27068e-05)
(0.010964 0 -3.76991e-05)
(0.0109774 0 -4.31317e-05)
(0.0109927 0 -4.90677e-05)
(0.01101 0 -5.55775e-05)
(0.0110295 0 -6.27404e-05)
(0.0110514 0 -7.06454e-05)
(0.0110761 0 -7.93931e-05)
(0.0111037 0 -8.90973e-05)
(0.0111347 0 -9.98876e-05)
(0.0111693 0 -0.000111912)
(0.0112081 0 -0.00012534)
(0.0112515 0 -0.000140368)
(0.0113 0 -0.000157219)
(0.0113543 0 -0.000176157)
(0.011415 0 -0.000197486)
(0.011483 0 -0.000221564)
(0.0115592 0 -0.00024881)
(0.0116446 0 -0.000279722)
(0.0117405 0 -0.000314891)
(0.0118482 0 -0.000355024)
(0.0119695 0 -0.000400973)
(0.0121061 0 -0.000453766)
(0.0122604 0 -0.00051466)
(0.0124348 0 -0.000585195)
(0.0126326 0 -0.000667278)
(0.0128574 0 -0.00076329)
(0.0131134 0 -0.000876228)
(0.0134061 0 -0.00100991)
(0.0137418 0 -0.00116928)
(0.0141283 0 -0.00136081)
(0.0145755 0 -0.00159317)
(0.0150958 0 -0.00187832)
(0.0157052 0 -0.00223326)
(0.0164245 0 -0.00268316)
(0.017281 0 -0.00326701)
(0.0183103 0 -0.00404796)
(0.019555 0 -0.00513194)
(0.0210558 0 -0.006699)
(0.0228253 0 -0.00905099)
(0.0247686 0 -0.0126819)
(0.0264177 0 -0.018343)
(0.0262645 0 -0.0267678)
(0.0216937 0 -0.0368674)
(0.0122763 0 -0.0435445)
(0.000449894 0 -0.0441833)
(-0.00968814 0 -0.0379695)
(-0.0145327 0 -0.0276176)
(-0.0147262 0 -0.0188057)
(-0.0130015 0 -0.0128275)
(-0.0109586 0 -0.00899082)
(-0.0091022 0 -0.00653344)
(-0.00753607 0 -0.00493473)
(-0.00624497 0 -0.00386538)
(-0.00518094 0 -0.00312413)
(-0.00429413 0 -0.00259099)
(-0.00354353 0 -0.00219424)
(-0.00289827 0 -0.00188962)
(-0.0023359 0 -0.00164839)
(-0.0018405 0 -0.00145062)
(-0.00140122 0 -0.00128141)
(-0.0010105 0 -0.00112875)
(-0.000660863 0 -0.000982404)
(-0.000348288 0 -0.000833059)
(-0.000164368 0 -0.000672353)
(6.28214e-05 0 -0.000329682)
(0.000132561 0 -0.000411763)
(0.000253395 0 -0.000491229)
(0.000390353 0 -0.000569005)
(0.000544808 0 -0.000646575)
(0.000718884 0 -0.000725573)
(0.000913866 0 -0.000807507)
(0.00113113 0 -0.000893544)
(0.00137237 0 -0.000984354)
(0.00163938 0 -0.00108002)
(0.00193391 0 -0.00117996)
(0.00225748 0 -0.00128291)
(0.00261118 0 -0.00138694)
(0.00299545 0 -0.00148949)
(0.00340991 0 -0.00158743)
(0.00385314 0 -0.00167727)
(0.00432256 0 -0.0017553)
(0.00481437 0 -0.00181787)
(0.00532356 0 -0.0018617)
(0.00584405 0 -0.00188413)
(0.00636898 0 -0.00188343)
(0.00689104 0 -0.00185894)
(0.00740288 0 -0.00181119)
(0.00789753 0 -0.0017418)
(0.00836876 0 -0.00165338)
(0.00881139 0 -0.00154924)
(0.00922142 0 -0.00143316)
(0.00959615 0 -0.00130906)
(0.00993411 0 -0.00118079)
(0.010235 0 -0.00105189)
(0.0104995 0 -0.000925449)
(0.0107291 0 -0.000804036)
(0.0109259 0 -0.000689639)
(0.0110924 0 -0.000583691)
(0.0112313 0 -0.000487103)
(0.0113457 0 -0.000400329)
(0.0114384 0 -0.000323443)
(0.0115122 0 -0.000256205)
(0.0115697 0 -0.000198142)
(0.0116134 0 -0.000148621)
(0.0116456 0 -0.000106912)
(0.0116681 0 -7.22347e-05)
(0.0116828 0 -4.37972e-05)
(0.0116911 0 -2.0826e-05)
(0.0116944 0 -2.58699e-06)
(0.0116938 0 1.16013e-05)
(0.0116902 0 2.23587e-05)
(0.0116844 0 3.02403e-05)
(0.0116769 0 3.57354e-05)
(0.0116685 0 3.927e-05)
(0.0116594 0 4.12107e-05)
(0.01165 0 4.18691e-05)
(0.0116405 0 4.15075e-05)
(0.0116313 0 4.03438e-05)
(0.0116225 0 3.85574e-05)
(0.0116141 0 3.62939e-05)
(0.0116063 0 3.36697e-05)
(0.0115991 0 3.07766e-05)
(0.0115927 0 2.7685e-05)
(0.011587 0 2.44474e-05)
(0.0115821 0 2.11015e-05)
(0.011578 0 1.76718e-05)
(0.0115747 0 1.41725e-05)
(0.0115722 0 1.06083e-05)
(0.0115706 0 6.97645e-06)
(0.0115699 0 3.26736e-06)
(0.01157 0 -5.34409e-07)
(0.0115711 0 -4.4495e-06)
(0.0115732 0 -8.50339e-06)
(0.0115762 0 -1.27261e-05)
(0.0115803 0 -1.71518e-05)
(0.0115855 0 -2.18195e-05)
(0.0115919 0 -2.67723e-05)
(0.0115995 0 -3.20583e-05)
(0.0116085 0 -3.77308e-05)
(0.0116189 0 -4.38494e-05)
(0.0116308 0 -5.04806e-05)
(0.0116445 0 -5.7699e-05)
(0.01166 0 -6.55879e-05)
(0.0116776 0 -7.42404e-05)
(0.0116974 0 -8.37609e-05)
(0.0117196 0 -9.42667e-05)
(0.0117446 0 -0.00010589)
(0.0117726 0 -0.000118782)
(0.0118039 0 -0.000133111)
(0.0118389 0 -0.000149072)
(0.011878 0 -0.000166888)
(0.0119217 0 -0.000186814)
(0.0119706 0 -0.000209143)
(0.0120251 0 -0.000234218)
(0.0120861 0 -0.000262434)
(0.0121543 0 -0.000294255)
(0.0122305 0 -0.000330223)
(0.0123159 0 -0.000370981)
(0.0124114 0 -0.000417287)
(0.0125186 0 -0.000470046)
(0.0126389 0 -0.000530345)
(0.012774 0 -0.000599492)
(0.012926 0 -0.000679074)
(0.0130974 0 -0.000771035)
(0.0132907 0 -0.000877765)
(0.0135093 0 -0.00100224)
(0.0137569 0 -0.00114818)
(0.0140381 0 -0.00132031)
(0.0143581 0 -0.00152472)
(0.0147232 0 -0.00176934)
(0.015141 0 -0.00206472)
(0.0156207 0 -0.00242523)
(0.016173 0 -0.0028709)
(0.0168106 0 -0.00343045)
(0.0175475 0 -0.00414619)
(0.0183964 0 -0.00508172)
(0.0193626 0 -0.00633365)
(0.0204276 0 -0.00804707)
(0.0215172 0 -0.0104313)
(0.0224357 0 -0.0137647)
(0.0227313 0 -0.0183459)
(0.0214854 0 -0.0242382)
(0.0174734 0 -0.030506)
(0.0106088 0 -0.034642)
(0.00236049 0 -0.035049)
(-0.00499046 0 -0.0312606)
(-0.00921784 0 -0.0249235)
(-0.0105479 0 -0.0187939)
(-0.0102304 0 -0.0139723)
(-0.00923784 0 -0.0104589)
(-0.0080591 0 -0.00796747)
(-0.00690858 0 -0.00620978)
(-0.00586707 0 -0.00495936)
(-0.00495238 0 -0.00405451)
(-0.00415597 0 -0.00338552)
(-0.0034612 0 -0.00287934)
(-0.00285111 0 -0.00248694)
(-0.00231114 0 -0.00217452)
(-0.0018299 0 -0.00191768)
(-0.00139918 0 -0.00169774)
(-0.00101304 0 -0.00149948)
(-0.000664929 0 -0.00130972)
(-0.000351453 0 -0.00111662)
(-0.000166317 0 -0.000909256)
(6.14655e-05 0 -0.000418198)
(0.000129557 0 -0.000519122)
(0.00024768 0 -0.000617171)
(0.00038168 0 -0.000713742)
(0.000533151 0 -0.000810726)
(0.000704482 0 -0.000910214)
(0.0008973 0 -0.00101411)
(0.00111339 0 -0.00112389)
(0.00135488 0 -0.00124041)
(0.00162408 0 -0.00136378)
(0.00192328 0 -0.0014933)
(0.00225456 0 -0.00162738)
(0.00261955 0 -0.00176352)
(0.00301922 0 -0.00189838)
(0.00345356 0 -0.00202786)
(0.00392136 0 -0.00214725)
(0.00442003 0 -0.00225155)
(0.00494544 0 -0.00233577)
(0.00549191 0 -0.00239533)
(0.00605242 0 -0.00242656)
(0.00661889 0 -0.00242701)
(0.00718266 0 -0.00239575)
(0.007735 0 -0.00233349)
(0.0082677 0 -0.0022425)
(0.0087735 0 -0.00212637)
(0.00924648 0 -0.00198968)
(0.00968221 0 -0.00183755)
(0.0100779 0 -0.00167532)
(0.0104322 0 -0.00150811)
(0.0107451 0 -0.00134062)
(0.0110179 0 -0.00117689)
(0.0112525 0 -0.00102022)
(0.0114517 0 -0.000873124)
(0.0116184 0 -0.000737367)
(0.0117562 0 -0.00061403)
(0.0118682 0 -0.000503598)
(0.0119579 0 -0.000406067)
(0.0120283 0 -0.000321043)
(0.0120823 0 -0.000247846)
(0.0121226 0 -0.000185603)
(0.0121514 0 -0.000133331)
(0.012171 0 -8.99923e-05)
(0.012183 0 -5.45482e-05)
(0.0121891 0 -2.59926e-05)
(0.0121904 0 -3.37814e-06)
(0.0121882 0 1.41684e-05)
(0.0121833 0 2.74367e-05)
(0.0121764 0 3.71295e-05)
(0.0121682 0 4.38637e-05)
(0.0121592 0 4.8174e-05)
(0.0121497 0 5.05185e-05)
(0.01214 0 5.12851e-05)
(0.0121305 0 5.07993e-05)
(0.0121213 0 4.93306e-05)
(0.0121124 0 4.71003e-05)
(0.0121042 0 4.42873e-05)
(0.0120965 0 4.10345e-05)
(0.0120896 0 3.74539e-05)
(0.0120833 0 3.36314e-05)
(0.0120779 0 2.96308e-05)
(0.0120732 0 2.54974e-05)
(0.0120693 0 2.12607e-05)
(0.0120662 0 1.69372e-05)
(0.0120639 0 1.25322e-05)
(0.0120625 0 8.0416e-06)
(0.0120619 0 3.45295e-06)
(0.0120623 0 -1.25325e-06)
(0.0120635 0 -6.10297e-06)
(0.0120656 0 -1.1128e-05)
(0.0120688 0 -1.63659e-05)
(0.0120729 0 -2.18593e-05)
(0.0120782 0 -2.76566e-05)
(0.0120846 0 -3.38115e-05)
(0.0120922 0 -4.0384e-05)
(0.0121011 0 -4.74405e-05)
(0.0121114 0 -5.50549e-05)
(0.0121233 0 -6.33099e-05)
(0.0121368 0 -7.22978e-05)
(0.0121521 0 -8.21214e-05)
(0.0121695 0 -9.28957e-05)
(0.012189 0 -0.00010475)
(0.0122109 0 -0.000117828)
(0.0122355 0 -0.000132293)
(0.012263 0 -0.00014833)
(0.0122937 0 -0.000166147)
(0.0123281 0 -0.000185983)
(0.0123664 0 -0.000208109)
(0.0124092 0 -0.000232838)
(0.0124569 0 -0.000260526)
(0.0125101 0 -0.000291589)
(0.0125695 0 -0.000326507)
(0.0126357 0 -0.000365837)
(0.0127097 0 -0.000410234)
(0.0127923 0 -0.000460466)
(0.0128845 0 -0.00051744)
(0.0129877 0 -0.00058223)
(0.013103 0 -0.000656121)
(0.0132321 0 -0.000740652)
(0.0133768 0 -0.000837681)
(0.013539 0 -0.000949466)
(0.0137211 0 -0.00107877)
(0.0139256 0 -0.001229)
(0.0141556 0 -0.0014044)
(0.0144144 0 -0.0016103)
(0.014706 0 -0.00185349)
(0.0150346 0 -0.00214269)
(0.0154052 0 -0.00248935)
(0.0158227 0 -0.00290866)
(0.0162924 0 -0.00342118)
(0.0168185 0 -0.00405515)
(0.0174022 0 -0.00484984)
(0.018038 0 -0.00586006)
(0.0187056 0 -0.00716145)
(0.0193552 0 -0.00885469)
(0.0198829 0 -0.0110635)
(0.0200916 0 -0.0139155)
(0.0196371 0 -0.017481)
(0.0179863 0 -0.0216142)
(0.0145844 0 -0.0256389)
(0.00949266 0 -0.0282365)
(0.00360934 0 -0.0284859)
(-0.00177532 0 -0.0261556)
(-0.00535082 0 -0.0221419)
(-0.00708848 0 -0.0178793)
(-0.00755081 0 -0.0141507)
(-0.00729397 0 -0.0111606)
(-0.00668958 0 -0.00886013)
(-0.00595356 0 -0.00712312)
(-0.00520018 0 -0.00581761)
(-0.00448301 0 -0.0048318)
(-0.00382241 0 -0.00407949)
(-0.00322231 0 -0.00349705)
(-0.0026795 0 -0.00303809)
(-0.00218836 0 -0.00266837)
(-0.00174321 0 -0.00236187)
(-0.00133954 0 -0.00209787)
(-0.000973828 0 -0.00185888)
(-0.000641249 0 -0.00162938)
(-0.000339607 0 -0.00139517)
(-0.000160941 0 -0.00114254)
(5.73118e-05 0 -0.000502765)
(0.000120789 0 -0.00062183)
(0.000231323 0 -0.000737912)
(0.000357243 0 -0.000852949)
(0.00050036 0 -0.000969307)
(0.000663312 0 -0.00108959)
(0.00084811 0 -0.00121615)
(0.001057 0 -0.00135084)
(0.00129267 0 -0.00149475)
(0.00155804 0 -0.00164811)
(0.00185609 0 -0.00181011)
(0.00218966 0 -0.00197886)
(0.00256115 0 -0.00215128)
(0.00297222 0 -0.00232318)
(0.00342349 0 -0.00248928)
(0.00391412 0 -0.00264348)
(0.00444158 0 -0.00277913)
(0.00500141 0 -0.00288954)
(0.00558715 0 -0.00296851)
(0.00619053 0 -0.00301096)
(0.00680188 0 -0.00301352)
(0.00741073 0 -0.00297489)
(0.00800656 0 -0.00289605)
(0.00857951 0 -0.0027801)
(0.00912103 0 -0.00263192)
(0.00962427 0 -0.00245769)
(0.0100844 0 -0.00226429)
(0.0104985 0 -0.00205873)
(0.0108656 0 -0.00184773)
(0.0111862 0 -0.0016373)
(0.0114623 0 -0.00143254)
(0.0116966 0 -0.00123755)
(0.0118927 0 -0.00105535)
(0.0120544 0 -0.000888015)
(0.0121856 0 -0.000736714)
(0.0122903 0 -0.000601882)
(0.0123723 0 -0.000483352)
(0.0124351 0 -0.00038049)
(0.0124818 0 -0.000292332)
(0.0125153 0 -0.0002177)
(0.0125379 0 -0.000155297)
(0.012552 0 -0.000103786)
(0.0125592 0 -6.18439e-05)
(0.0125611 0 -2.82069e-05)
(0.012559 0 -1.69504e-06)
(0.0125539 0 1.87686e-05)
(0.0125466 0 3.41502e-05)
(0.0125379 0 4.53036e-05)
(0.0125282 0 5.29734e-05)
(0.012518 0 5.78009e-05)
(0.0125077 0 6.03327e-05)
(0.0124975 0 6.10294e-05)
(0.0124876 0 6.02751e-05)
(0.0124781 0 5.8387e-05)
(0.0124692 0 5.56239e-05)
(0.0124609 0 5.21945e-05)
(0.0124533 0 4.82645e-05)
(0.0124465 0 4.39633e-05)
(0.0124404 0 3.93894e-05)
(0.0124351 0 3.46157e-05)
(0.0124306 0 2.96932e-05)
(0.0124269 0 2.46549e-05)
(0.012424 0 1.95182e-05)
(0.0124218 0 1.42879e-05)
(0.0124206 0 8.95771e-06)
(0.0124201 0 3.51177e-06)
(0.0124205 0 -2.07398e-06)
(0.0124218 0 -7.83109e-06)
(0.0124239 0 -1.37979e-05)
(0.012427 0 -2.00194e-05)
(0.0124311 0 -2.65466e-05)
(0.0124363 0 -3.34374e-05)
(0.0124425 0 -4.07558e-05)
(0.0124499 0 -4.85732e-05)
(0.0124585 0 -5.69687e-05)
(0.0124685 0 -6.60301e-05)
(0.01248 0 -7.58556e-05)
(0.012493 0 -8.6554e-05)
(0.0125078 0 -9.82468e-05)
(0.0125245 0 -0.00011107)
(0.0125433 0 -0.000125174)
(0.0125643 0 -0.00014073)
(0.0125879 0 -0.00015793)
(0.0126142 0 -0.000176989)
(0.0126437 0 -0.000198152)
(0.0126765 0 -0.000221697)
(0.0127131 0 -0.000247941)
(0.0127539 0 -0.000277245)
(0.0127993 0 -0.000310024)
(0.0128498 0 -0.000346758)
(0.0129061 0 -0.000387998)
(0.0129688 0 -0.000434386)
(0.0130386 0 -0.000486668)
(0.0131163 0 -0.000545716)
(0.0132028 0 -0.000612558)
(0.0132992 0 -0.000688403)
(0.0134065 0 -0.000774688)
(0.0135262 0 -0.000873125)
(0.0136595 0 -0.000985765)
(0.0138081 0 -0.00111508)
(0.0139738 0 -0.00126408)
(0.0141584 0 -0.00143642)
(0.014364 0 -0.00163662)
(0.0145929 0 -0.00187029)
(0.0148474 0 -0.00214443)
(0.0151298 0 -0.00246794)
(0.0154421 0 -0.00285215)
(0.0157857 0 -0.00331172)
(0.0161605 0 -0.00386574)
(0.0165638 0 -0.00453921)
(0.0169875 0 -0.00536485)
(0.0174144 0 -0.00638491)
(0.0178113 0 -0.00765225)
(0.0181181 0 -0.00922851)
(0.0182331 0 -0.0111754)
(0.0179945 0 -0.0135325)
(0.0171662 0 -0.0162698)
(0.0154508 0 -0.0192007)
(0.0126098 0 -0.0218616)
(0.0087502 0 -0.0235307)
(0.00442501 0 -0.0236845)
(0.000410752 0 -0.0222232)
(-0.00257437 0 -0.0196033)
(-0.00436242 0 -0.0166139)
(-0.00520922 0 -0.0137768)
(-0.00541819 0 -0.0113243)
(-0.00524172 0 -0.00930906)
(-0.00485668 0 -0.00769835)
(-0.00437521 0 -0.00642821)
(-0.00386292 0 -0.0054305)
(-0.00335529 0 -0.00464467)
(-0.00286976 0 -0.00402095)
(-0.00241367 0 -0.00351982)
(-0.00198913 0 -0.00310995)
(-0.00159593 0 -0.00276604)
(-0.00123338 0 -0.00246692)
(-0.000900624 0 -0.00219392)
(-0.000594915 0 -0.00192986)
(-0.00031556 0 -0.00165852)
(-0.00014965 0 -0.00136353)
(5.06457e-05 0 -0.000579633)
(0.000106767 0 -0.000715519)
(0.000205162 0 -0.000848637)
(0.000318177 0 -0.00098146)
(0.000447854 0 -0.00111685)
(0.00059707 0 -0.00125797)
(0.000768263 0 -0.00140771)
(0.00096422 0 -0.00156835)
(0.00118826 0 -0.00174135)
(0.00144405 0 -0.00192711)
(0.00173548 0 -0.00212484)
(0.00206632 0 -0.00233236)
(0.00244002 0 -0.00254602)
(0.00285924 0 -0.00276069)
(0.00332546 0 -0.00296976)
(0.00383848 0 -0.0031654)
(0.00439598 0 -0.00333895)
(0.00499315 0 -0.00348149)
(0.00562258 0 -0.00358466)
(0.00627439 0 -0.00364153)
(0.00693681 0 -0.00364745)
(0.00759695 0 -0.00360065)
(0.00824188 0 -0.00350245)
(0.0088596 0 -0.00335709)
(0.00943988 0 -0.0031712)
(0.00997481 0 -0.00295305)
(0.0104591 0 -0.00271175)
(0.0108898 0 -0.00245645)
(0.0112666 0 -0.00219574)
(0.0115908 0 -0.00193722)
(0.0118652 0 -0.00168717)
(0.0120939 0 -0.00145049)
(0.0122813 0 -0.00123072)
(0.0124322 0 -0.00103013)
(0.0125514 0 -0.000849885)
(0.0126437 0 -0.00069025)
(0.0127134 0 -0.00055077)
(0.0127642 0 -0.000430458)
(0.0127998 0 -0.000327965)
(0.0128231 0 -0.000241718)
(0.0128367 0 -0.000170042)
(0.0128427 0 -0.000111241)
(0.012843 0 -6.36696e-05)
(0.0128389 0 -2.57741e-05)
(0.0128318 0 3.87516e-06)
(0.0128226 0 2.65699e-05)
(0.0128119 0 4.34573e-05)
(0.0128005 0 5.55425e-05)
(0.0127887 0 6.36942e-05)
(0.0127768 0 6.86557e-05)
(0.0127653 0 7.10553e-05)
(0.0127541 0 7.14194e-05)
(0.0127435 0 7.01842e-05)
(0.0127336 0 6.77076e-05)
(0.0127244 0 6.42798e-05)
(0.012716 0 6.01336e-05)
(0.0127084 0 5.54526e-05)
(0.0127016 0 5.03789e-05)
(0.0126956 0 4.50203e-05)
(0.0126904 0 3.94553e-05)
(0.012686 0 3.3738e-05)
(0.0126824 0 2.79024e-05)
(0.0126796 0 2.19654e-05)
(0.0126776 0 1.59297e-05)
(0.0126764 0 9.78577e-06)
(0.0126759 0 3.51345e-06)
(0.0126763 0 -2.91643e-06)
(0.0126776 0 -9.54137e-06)
(0.0126797 0 -1.64065e-05)
(0.0126826 0 -2.35641e-05)
(0.0126865 0 -3.10738e-05)
(0.0126914 0 -3.90022e-05)
(0.0126973 0 -4.74236e-05)
(0.0127043 0 -5.64201e-05)
(0.0127125 0 -6.60829e-05)
(0.012722 0 -7.6513e-05)
(0.0127328 0 -8.78224e-05)
(0.0127451 0 -0.000100136)
(0.012759 0 -0.000113592)
(0.0127747 0 -0.000128345)
(0.0127923 0 -0.000144567)
(0.0128121 0 -0.000162451)
(0.0128342 0 -0.000182216)
(0.0128588 0 -0.000204104)
(0.0128863 0 -0.000228392)
(0.012917 0 -0.000255393)
(0.0129511 0 -0.000285462)
(0.012989 0 -0.000319004)
(0.0130312 0 -0.000356483)
(0.013078 0 -0.00039843)
(0.01313 0 -0.000445458)
(0.0131878 0 -0.000498272)
(0.0132519 0 -0.000557692)
(0.0133231 0 -0.000624671)
(0.013402 0 -0.000700324)
(0.0134896 0 -0.000785956)
(0.0135866 0 -0.000883107)
(0.0136942 0 -0.000993597)
(0.0138133 0 -0.00111959)
(0.0139451 0 -0.00126367)
(0.0140907 0 -0.00142895)