/*--------------------------------*- C++ -*----------------------------------*\
  =========                 |
  \\      /  F ield         | OpenFOAM: The Open Source CFD Toolbox
   \\    /   O peration     | Website:  https://openfoam.org
    \\  /    A nd           | Version:  12
     \\/     M anipulation  |
\*---------------------------------------------------------------------------*/
FoamFile
{
    format      ascii;
    class       volScalarField;
    location    "195";
    object      T;
}
// * * * * * * * * * * * * * * * * * * * * * * * * * * * * * * * * * * * * * //

dimensions      [];

internalField   nonuniform List<scalar> 
4480
(
5.05254e-11
9.71628e-09
2.20457e-05
0.00168452
0.0152452
0.0497808
0.101482
0.161741
0.223385
0.281976
0.335285
0.382486
0.423531
0.458768
0.488704
0.51389
0.534856
0.552092
0.566025
0.577029
0.585427
0.591493
0.59546
0.597526
0.597857
0.596599
0.593873
0.590344
0.58677
0.58313
0.579407
0.575581
0.57163
0.567535
0.563275
0.55883
0.554177
0.549293
0.544152
0.53873
0.533
0.52693
0.52049
0.513647
0.506365
0.498603
0.49032
0.481472
0.472003
0.461858
0.450978
0.43929
0.42671
0.413149
0.398504
0.382661
0.365505
0.34692
0.326808
0.305121
0.281874
0.257197
0.231345
0.204727
0.177886
0.151474
0.126182
0.102674
0.0814991
0.0630437
0.0474885
0.0348162
0.0248374
0.0172401
0.0116451
0.00765672
0.00490253
0.00305846
0.00186017
0.00110373
0.000639366
0.000361859
0.000200252
0.000111476
6.38275e-05
3.82859e-05
2.43505e-05
1.6446e-05
1.17056e-05
8.68485e-06
6.65542e-06
5.2391e-06
4.22731e-06
3.49584e-06
2.96539e-06
2.58303e-06
2.31304e-06
2.13163e-06
2.02397e-06
1.98227e-06
2.00497e-06
2.09677e-06
2.26971e-06
2.54567e-06
2.96079e-06
3.57324e-06
4.4766e-06
5.82262e-06
7.86134e-06
1.10117e-05
1.59878e-05
2.40277e-05
3.73114e-05
5.97297e-05
9.83012e-05
0.00016579
0.000285507
0.000500114
0.000887838
0.0015947
0.00291018
0.00546097
0.0106623
0.0222279
0.0544597
0.140667
0.255666
0.40797
0.323105
0.0862865
0.0236633
0.00409234
0.000605847
8.74794e-05
1.08727e-05
1.05188e-06
7.30013e-08
2.94624e-09
5.28175e-11
2.32922e-13
3.69489e-11
9.88324e-07
0.000526432
0.01556
0.0752388
0.171029
0.277125
0.376415
0.462043
0.533051
0.590941
0.637882
0.675954
0.706897
0.732088
0.752611
0.769299
0.782801
0.793628
0.802185
0.808794
0.813705
0.817128
0.819223
0.820126
0.819939
0.818749
0.816454
0.813133
0.808877
0.803777
0.79792
0.79139
0.784266
0.776616
0.768508
0.759999
0.751136
0.741959
0.732504
0.722797
0.712857
0.702692
0.692311
0.681713
0.670887
0.659824
0.648504
0.636901
0.624989
0.612729
0.600087
0.587009
0.573441
0.559325
0.544586
0.52915
0.512925
0.495819
0.47774
0.458592
0.438302
0.416809
0.394094
0.370178
0.345139
0.319107
0.292283
0.264935
0.237388
0.210022
0.183257
0.157528
0.133258
0.110826
0.0905387
0.0726023
0.0571132
0.0440567
0.0333155
0.024693
0.0179387
0.0127742
0.00895883
0.00621331
0.00427691
0.00293487
0.00201789
0.00139772
0.000980714
0.000700528
0.00051148
0.000382818
0.000294202
0.000232345
0.000188622
0.000157441
0.00013516
0.000119405
0.000108634
0.00010187
9.85483e-05
9.84372e-05
0.000101605
0.000108445
0.000119747
0.000136841
0.00016184
0.000198055
0.000250656
0.000327772
0.00044229
0.000614836
0.000878668
0.00128779
0.00193031
0.00295056
0.00458597
0.00722976
0.0115437
0.0186719
0.03064
0.0510003
0.0857955
0.144384
0.234628
0.349212
0.459665
0.370769
0.128723
0.0387448
0.00998304
0.00220529
0.000413402
6.39243e-05
7.57236e-06
6.42173e-07
3.2552e-08
7.74194e-10
5.47199e-12
1.37253e-08
2.80545e-05
0.00473491
0.0621755
0.188978
0.333305
0.460406
0.560952
0.637377
0.695147
0.739327
0.773744
0.80103
0.822967
0.840758
0.855253
0.867064
0.876654
0.884386
0.890543
0.895356
0.899007
0.901647
0.903396
0.904348
0.90458
0.904152
0.902986
0.901054
0.898394
0.895041
0.891019
0.88636
0.881085
0.87523
0.868819
0.861889
0.85447
0.846595
0.838298
0.82961
0.820559
0.811176
0.801482
0.791497
0.781243
0.770726
0.759959
0.748944
0.737681
0.726165
0.714386
0.702326
0.689966
0.677282
0.664236
0.650796
0.636912
0.622531
0.607595
0.592036
0.575784
0.558762
0.540898
0.522119
0.502359
0.481565
0.459703
0.436758
0.412755
0.387746
0.361839
0.335183
0.307982
0.280487
0.253
0.225849
0.199384
0.173954
0.149891
0.127484
0.106969
0.0885096
0.0722871
0.0583454
0.046583
0.0368338
0.0288889
0.0225162
0.0174788
0.0135485
0.0105164
0.00819941
0.00644191
0.00511627
0.0041203
0.00337414
0.00281676
0.00240235
0.00209713
0.00187674
0.00172408
0.00162779
0.00158109
0.00158124
0.00162932
0.00173047
0.0018948
0.00213877
0.00248766
0.00297937
0.00367019
0.00464353
0.00602294
0.00799156
0.0108206
0.0149117
0.0208576
0.0295314
0.0422149
0.0607703
0.0878191
0.126764
0.181342
0.254198
0.343538
0.437573
0.506129
0.422955
0.179825
0.0635207
0.0194415
0.00509973
0.00112107
0.0002022
2.79302e-05
2.78912e-06
1.70874e-07
5.1558e-09
4.99961e-11
6.48469e-07
0.000353338
0.0230437
0.155379
0.338086
0.495911
0.611219
0.691363
0.747466
0.788222
0.819247
0.843838
0.863849
0.880336
0.893965
0.905206
0.914431
0.92194
0.927995
0.932816
0.93659
0.93947
0.941586
0.943043
0.94392
0.94428
0.944175
0.943573
0.942447
0.940819
0.938699
0.936093
0.933007
0.92944
0.925393
0.920873
0.915884
0.910431
0.904529
0.898188
0.891426
0.884261
0.87671
0.868796
0.860538
0.851958
0.843072
0.8339
0.824456
0.814756
0.804809
0.79462
0.784198
0.77354
0.762645
0.751505
0.740109
0.728437
0.716473
0.704183
0.69154
0.678498
0.665018
0.651046
0.636522
0.621385
0.605572
0.58901
0.571633
0.553372
0.534169
0.513978
0.492764
0.470519
0.447258
0.423029
0.397921
0.372058
0.345603
0.318761
0.291773
0.264906
0.238446
0.212739
0.188188
0.165065
0.143595
0.123944
0.106212
0.0904327
0.0765831
0.0645864
0.0543247
0.0456508
0.0384011
0.0324047
0.0274944
0.0235122
0.0203152
0.0177778
0.0157936
0.014275
0.0131531
0.0123763
0.0119101
0.011736
0.0118526
0.0122761
0.0130431
0.0142155
0.0158866
0.0181909
0.0213177
0.0255297
0.0311866
0.0387767
0.0489559
0.0625912
0.0808071
0.105017
0.136906
0.178281
0.230657
0.294438
0.367623
0.443909
0.509789
0.540166
0.464691
0.235244
0.0952916
0.0330391
0.00974489
0.00239597
0.000483428
7.49069e-05
8.48204e-06
6.01946e-07
2.18064e-08
2.67233e-10
1.22293e-05
0.00250169
0.0727567
0.288851
0.491424
0.629762
0.716868
0.772719
0.811083
0.839877
0.863154
0.882731
0.899347
0.913355
0.925016
0.934594
0.942365
0.948591
0.953516
0.95736
0.960313
0.96253
0.964144
0.965256
0.965947
0.966277
0.966287
0.965968
0.965274
0.96422
0.962811
0.961051
0.95894
0.956472
0.953644
0.950448
0.946877
0.94293
0.938601
0.933895
0.928808
0.923352
0.917528
0.911353
0.904834
0.897989
0.890833
0.883381
0.875649
0.867654
0.859413
0.850937
0.842242
0.833338
0.824234
0.814939
0.805452
0.795774
0.785906
0.775837
0.765558
0.755052
0.744303
0.733283
0.721956
0.710294
0.698247
0.685769
0.672807
0.659299
0.645182
0.630388
0.614853
0.598508
0.581291
0.563147
0.544034
0.52392
0.502796
0.48068
0.45761
0.433658
0.408929
0.383545
0.357783
0.331882
0.3061
0.280706
0.255973
0.232156
0.209489
0.188169
0.168356
0.15016
0.133647
0.118837
0.105713
0.0942197
0.0842801
0.0757986
0.0686701
0.0627894
0.0580571
0.0543855
0.051704
0.0499644
0.0491441
0.0492517
0.0503315
0.0524705
0.0558048
0.0605316
0.0669189
0.0753208
0.0861915
0.100099
0.117735
0.13991
0.167529
0.201513
0.242657
0.291352
0.34715
0.408142
0.470174
0.525811
0.56279
0.561882
0.489465
0.288675
0.13124
0.0505011
0.0164069
0.0044188
0.000976338
0.000165876
2.07604e-05
1.65403e-06
6.90729e-08
1.01361e-09
0.000127362
0.0115283
0.167203
0.439379
0.621514
0.723831
0.782531
0.819949
0.84733
0.869979
0.889981
0.907697
0.922991
0.935807
0.946264
0.954619
0.961172
0.966222
0.970051
0.972897
0.974972
0.976447
0.977464
0.978128
0.978521
0.978701
0.978703
0.978533
0.978101
0.977418
0.976487
0.975303
0.973865
0.972163
0.97019
0.967935
0.96539
0.962545
0.959392
0.955927
0.952143
0.948039
0.943615
0.938876
0.933827
0.928474
0.922829
0.916902
0.91071
0.904264
0.89758
0.890674
0.883562
0.876257
0.868772
0.861124
0.853321
0.845372
0.837283
0.829061
0.820711
0.812223
0.803601
0.794831
0.785903
0.776802
0.767502
0.757982
0.748209
0.738142
0.727742
0.716961
0.705746
0.694041
0.681782
0.668908
0.65535
0.641051
0.625945
0.609975
0.593094
0.575268
0.556472
0.536657
0.515889
0.49424
0.471809
0.448725
0.425151
0.401279
0.377323
0.353509
0.330074
0.307252
0.285268
0.264328
0.244614
0.226279
0.209443
0.194197
0.1806
0.168688
0.158475
0.149963
0.143151
0.13804
0.134643
0.132996
0.133162
0.135242
0.139386
0.145794
0.154725
0.166505
0.181519
0.200204
0.223035
0.250473
0.282906
0.320531
0.363199
0.410177
0.459848
0.50934
0.554068
0.587112
0.598363
0.573724
0.496546
0.334166
0.16791
0.0708396
0.0250776
0.00731774
0.00175
0.000321712
4.38056e-05
3.84007e-06
1.80057e-07
3.06036e-09
0.000871321
0.0381924
0.302358
0.578058
0.714717
0.78211
0.820606
0.847288
0.869355
0.889737
0.908955
0.926236
0.940891
0.952757
0.962044
0.969121
0.974369
0.978147
0.980767
0.982501
0.98358
0.984193
0.984494
0.984602
0.984598
0.984538
0.984451
0.984348
0.984098
0.983704
0.983159
0.98245
0.981567
0.980497
0.979226
0.977737
0.976019
0.97406
0.971848
0.969376
0.966634
0.963617
0.960324
0.956753
0.952907
0.948788
0.944402
0.939759
0.93487
0.929744
0.924397
0.918844
0.913096
0.90717
0.901083
0.894849
0.88848
0.881993
0.875398
0.868704
0.861922
0.855055
0.848111
0.841088
0.83399
0.826808
0.819534
0.81216
0.804667
0.797041
0.789253
0.78128
0.773084
0.764635
0.755888
0.746797
0.737312
0.727381
0.71695
0.705961
0.694351
0.682069
0.669059
0.655218
0.640523
0.624945
0.608473
0.591115
0.572909
0.553914
0.534215
0.513933
0.493212
0.472217
0.451143
0.430194
0.409593
0.389558
0.370313
0.352072
0.335036
0.319393
0.305313
0.292948
0.282436
0.273904
0.267472
0.263262
0.2614
0.262025
0.265294
0.271385
0.280498
0.29285
0.308661
0.328139
0.351444
0.37864
0.409618
0.444012
0.481068
0.51949
0.557251
0.591356
0.617526
0.6298
0.620085
0.578221
0.49436
0.362253
0.201851
0.0925226
0.0354311
0.011127
0.0028601
0.000564565
8.28585e-05
7.89748e-06
4.09431e-07
7.91319e-09
0.00439274
0.0975324
0.453914
0.683154
0.772441
0.815667
0.842783
0.86428
0.884357
0.904487
0.924054
0.941303
0.955296
0.966035
0.973967
0.979612
0.983434
0.985823
0.987116
0.987607
0.987553
0.987168
0.986631
0.986067
0.98557
0.985192
0.984959
0.984866
0.984758
0.984619
0.984429
0.984167
0.98381
0.983335
0.982718
0.981938
0.980973
0.979811
0.978435
0.976831
0.974993
0.97291
0.970579
0.967997
0.965164
0.962085
0.958761
0.955199
0.951408
0.947401
0.943185
0.938774
0.934185
0.929431
0.924526
0.919486
0.914328
0.909064
0.90371
0.898278
0.892781
0.887223
0.881622
0.875979
0.870296
0.864582
0.858834
0.85305
0.847222
0.841344
0.835407
0.829396
0.823289
0.817072
0.810714
0.804191
0.797474
0.790523
0.783306
0.775778
0.767895
0.759617
0.75089
0.741651
0.731814
0.721347
0.710206
0.698353
0.685765
0.672433
0.658354
0.643561
0.628098
0.612033
0.595465
0.578518
0.561336
0.544091
0.526972
0.510188
0.493956
0.478508
0.464067
0.450869
0.439138
0.42909
0.420939
0.414882
0.411116
0.409821
0.411173
0.415331
0.422439
0.432617
0.44594
0.462423
0.481986
0.504415
0.529305
0.555998
0.583487
0.610323
0.634464
0.653106
0.662434
0.657361
0.631404
0.577276
0.489424
0.369757
0.230408
0.113801
0.0468662
0.0157669
0.00433702
0.000915232
0.000144046
1.48347e-05
8.43736e-07
1.83847e-08
0.017805
0.201435
0.587521
0.748918
0.805127
0.835204
0.856704
0.875966
0.895684
0.916517
0.936865
0.954011
0.967046
0.976393
0.982801
0.986917
0.989226
0.990119
0.989947
0.989032
0.987669
0.986116
0.984578
0.983211
0.982115
0.981348
0.980923
0.980816
0.980832
0.980946
0.981122
0.981323
0.98151
0.98165
0.981704
0.981639
0.98143
0.98105
0.98048
0.979706
0.978712
0.977493
0.976038
0.974347
0.972418
0.970253
0.967855
0.965233
0.962393
0.959344
0.956099
0.952668
0.949068
0.94531
0.941408
0.937382
0.933241
0.929005
0.924686
0.920299
0.915858
0.911373
0.906853
0.902311
0.897753
0.893184
0.88861
0.884031
0.879447
0.87486
0.870263
0.865648
0.86101
0.856335
0.851614
0.846829
0.841963
0.836996
0.831903
0.826661
0.82124
0.815615
0.80975
0.803613
0.79711
0.790223
0.782914
0.775139
0.766865
0.758056
0.748694
0.738757
0.728251
0.717179
0.705577
0.693492
0.680993
0.668172
0.655152
0.642066
0.629083
0.61638
0.60416
0.592634
0.582025
0.57256
0.564469
0.557968
0.553274
0.55058
0.550066
0.551873
0.556112
0.562842
0.572058
0.583669
0.597481
0.613151
0.630164
0.647771
0.664927
0.680211
0.691696
0.696804
0.692123
0.673269
0.63501
0.572154
0.481925
0.368083
0.2449
0.133114
0.0586332
0.0210562
0.00618016
0.0013911
0.000234235
2.6e-05
1.61771e-06
3.9639e-08
0.0575102
0.348887
0.676043
0.784332
0.823953
0.847554
0.866243
0.884642
0.904769
0.926781
0.948049
0.964792
0.976514
0.984265
0.989086
0.991641
0.992366
0.991623
0.989783
0.987223
0.984304
0.981347
0.978607
0.976274
0.974464
0.973234
0.972586
0.972446
0.972598
0.972997
0.973587
0.974312
0.975111
0.975931
0.976719
0.977432
0.978027
0.978471
0.978739
0.978809
0.978665
0.978294
0.977688
0.976845
0.975766
0.974452
0.972905
0.971132
0.969144
0.96695
0.964558
0.961984
0.959243
0.956345
0.953309
0.95015
0.946878
0.943514
0.940069
0.936557
0.932996
0.929395
0.925764
0.922117
0.91846
0.914802
0.91115
0.907508
0.903877
0.900261
0.896656
0.893067
0.889485
0.885909
0.882329
0.878739
0.87513
0.871487
0.867803
0.864057
0.860239
0.856328
0.852303
0.848148
0.843794
0.839232
0.834428
0.829354
0.823979
0.818278
0.81222
0.805785
0.798953
0.791719
0.784075
0.776034
0.767617
0.758868
0.749843
0.740614
0.731284
0.721963
0.71279
0.703919
0.695516
0.687763
0.680846
0.674952
0.670269
0.666965
0.665191
0.665068
0.666677
0.670045
0.67513
0.681805
0.689839
0.698868
0.708363
0.717585
0.725534
0.730857
0.731749
0.725816
0.709963
0.680365
0.632807
0.563673
0.472058
0.362667
0.24784
0.145332
0.0699922
0.02675
0.00835994
0.00200524
0.000361037
4.31896e-05
2.94051e-06
8.1103e-08
0.124142
0.485446
0.734733
0.804441
0.835874
0.855989
0.873125
0.891303
0.912236
0.935697
0.957885
0.973838
0.983941
0.990026
0.993292
0.994282
0.993303
0.990693
0.986875
0.982329
0.977518
0.972854
0.968663
0.965178
0.962528
0.960771
0.959891
0.959724
0.960054
0.960807
0.961903
0.963255
0.964779
0.966395
0.968031
0.969625
0.971121
0.972475
0.973654
0.974626
0.975375
0.975885
0.976146
0.976155
0.975913
0.975422
0.974687
0.973717
0.972522
0.971113
0.969502
0.967702
0.965731
0.963599
0.961322
0.958918
0.956401
0.953789
0.95109
0.948326
0.945508
0.942646
0.939756
0.936847
0.933928
0.931008
0.928095
0.92519
0.922307
0.919439
0.916597
0.913776
0.910976
0.908198
0.905435
0.90269
0.899952
0.897218
0.89448
0.891727
0.888955
0.886156
0.883311
0.880414
0.877424
0.874324
0.871098
0.867728
0.864197
0.860475
0.856552
0.852401
0.848007
0.843358
0.838436
0.833245
0.827781
0.822057
0.816092
0.809927
0.803605
0.797189
0.790755
0.784402
0.778229
0.772364
0.766926
0.762054
0.757877
0.754521
0.752094
0.750681
0.750329
0.751045
0.752769
0.755362
0.758597
0.762115
0.765415
0.767796
0.768302
0.765642
0.758096
0.74341
0.718742
0.680757
0.626086
0.552368
0.460016
0.354246
0.245975
0.149578
0.0771334
0.032588
0.0108265
0.00276702
0.000533028
6.88189e-05
5.13787e-06
1.59974e-07
0.216578
0.587587
0.769847
0.82029
0.844626
0.861912
0.878137
0.896421
0.918377
0.943449
0.966524
0.981269
0.989556
0.994041
0.995853
0.995232
0.992321
0.987472
0.981231
0.974238
0.967113
0.960387
0.95447
0.949636
0.946034
0.943708
0.942616
0.942457
0.943042
0.944264
0.946002
0.948136
0.950545
0.953119
0.955761
0.958386
0.960921
0.96331
0.965506
0.967474
0.96919
0.97064
0.971815
0.972705
0.973319
0.973657
0.973728
0.973542
0.973112
0.97245
0.971572
0.970491
0.969225
0.967789
0.966199
0.964472
0.962625
0.960671
0.958629
0.95651
0.95433
0.952101
0.949836
0.947545
0.945241
0.942928
0.940617
0.938313
0.936022
0.933748
0.931495
0.929265
0.927058
0.924875
0.922716
0.920579
0.918464
0.916362
0.914275
0.912199
0.910127
0.908056
0.905976
0.903885
0.901752
0.899574
0.897331
0.895018
0.892622
0.890127
0.88752
0.88479
0.88192
0.878897
0.875713
0.872358
0.868824
0.865112
0.861227
0.857176
0.85298
0.84867
0.844282
0.839861
0.835467
0.831167
0.827033
0.823148
0.819588
0.816428
0.81373
0.811542
0.809879
0.808719
0.807986
0.807544
0.80716
0.806496
0.805061
0.802182
0.79693
0.788046
0.773862
0.752235
0.720548
0.675912
0.61571
0.5386
0.445977
0.343352
0.240559
0.149614
0.0803237
0.0360852
0.0130974
0.00368366
0.000760218
0.00010618
8.71997e-06
3.0771e-07
0.326862
0.659146
0.792772
0.831581
0.851723
0.866448
0.8817
0.900242
0.923322
0.950117
0.974043
0.98719
0.993606
0.996682
0.997142
0.99476
0.989526
0.9819
0.972653
0.962657
0.952735
0.943561
0.935634
0.929273
0.924632
0.921735
0.920496
0.920418
0.921381
0.923233
0.925802
0.928919
0.932421
0.93616
0.940004
0.943843
0.947587
0.951159
0.954505
0.957584
0.960369
0.962839
0.964988
0.966813
0.968317
0.969507
0.970397
0.970997
0.971321
0.971389
0.971217
0.970823
0.970221
0.969434
0.968478
0.96737
0.966128
0.964767
0.963308
0.961757
0.960138
0.958458
0.956731
0.954971
0.953182
0.951381
0.949569
0.947757
0.94595
0.944153
0.942369
0.940603
0.938855
0.937125
0.935419
0.933732
0.932066
0.93042
0.928793
0.927183
0.925584
0.923997
0.922421
0.920849
0.919266
0.917662
0.916034
0.914371
0.91267
0.910918
0.90911
0.907238
0.905287
0.90325
0.901122
0.898889
0.896543
0.894083
0.891501
0.888797
0.885978
0.88305
0.880023
0.876921
0.873765
0.870585
0.867413
0.864291
0.861248
0.858322
0.855533
0.852891
0.850378
0.847953
0.845517
0.84292
0.839927
0.836198
0.831248
0.824398
0.814721
0.800969
0.781498
0.754258
0.716859
0.666834
0.602248
0.522623
0.430115
0.330399
0.232452
0.146535
0.0807201
0.0377574
0.0145026
0.00438965
0.000991338
0.000154074
1.43432e-05
5.82085e-07
0.420991
0.729867
0.808663
0.839651
0.856759
0.870254
0.884251
0.902902
0.927134
0.955727
0.980511
0.99173
0.996364
0.998304
0.997453
0.992998
0.984866
0.973762
0.960807
0.947184
0.933953
0.921944
0.911751
0.903727
0.898015
0.894601
0.893339
0.893466
0.894984
0.897677
0.901312
0.905659
0.910499
0.915639
0.920909
0.926169
0.931303
0.936223
0.940867
0.945181
0.949138
0.95272
0.955919
0.958735
0.961175
0.963251
0.964979
0.966375
0.967459
0.96825
0.96877
0.969039
0.969078
0.968907
0.968546
0.968013
0.967331
0.966513
0.965579
0.964543
0.963419
0.962224
0.960969
0.959667
0.958325
0.956957
0.955568
0.954167
0.952759
0.951351
0.949947
0.948548
0.947159
0.945785
0.944423
0.943074
0.941744
0.940425
0.939126
0.937838
0.936569
0.935309
0.934065
0.93283
0.931599
0.930358
0.929108
0.927844
0.926561
0.925255
0.923919
0.92255
0.92114
0.919682
0.918169
0.916593
0.914946
0.913223
0.911418
0.909522
0.907531
0.905446
0.90326
0.900979
0.898605
0.896144
0.893602
0.890986
0.888301
0.885548
0.882717
0.879786
0.876715
0.87343
0.869816
0.865704
0.860844
0.854875
0.847297
0.83741
0.824263
0.806592
0.782778
0.750863
0.708679
0.654187
0.586083
0.504632
0.412594
0.315725
0.222285
0.141153
0.0790041
0.0379424
0.0151404
0.00482116
0.00116037
0.000194788
1.98698e-05
8.98932e-07
0.489323
0.756337
0.82005
0.845295
0.860071
0.872641
0.88655
0.904484
0.929832
0.960268
0.985979
0.995041
0.998117
0.99922
0.996984
0.98995
0.97815
0.962731
0.945286
0.927383
0.910338
0.89515
0.882486
0.872719
0.86597
0.862163
0.861067
0.861591
0.863906
0.867714
0.872704
0.878566
0.88502
0.891819
0.89875
0.905642
0.912356
0.91879
0.924868
0.930536
0.935767
0.940542
0.944858
0.948719
0.952137
0.95513
0.95772
0.959923
0.96177
0.963283
0.964487
0.965407
0.966065
0.966486
0.966692
0.966704
0.966543
0.966228
0.965777
0.965208
0.964534
0.963773
0.962936
0.962036
0.961084
0.960089
0.95906
0.958006
0.956933
0.955845
0.954749
0.95365
0.952548
0.951448
0.950352
0.949262
0.948178
0.947103
0.946035
0.944978
0.943931
0.942895
0.941868
0.94085
0.93984
0.938824
0.937803
0.936777
0.935738
0.93469
0.933624
0.93254
0.931432
0.930298
0.929127
0.927917
0.926658
0.925345
0.923972
0.922525
0.921002
0.919392
0.917683
0.915873
0.91395
0.911905
0.909727
0.907404
0.90492
0.902252
0.899369
0.896227
0.892758
0.888865
0.884411
0.879206
0.87297
0.865316
0.855707
0.843403
0.827417
0.806459
0.778931
0.742977
0.696674
0.638414
0.567476
0.484781
0.393573
0.299621
0.210546
0.134079
0.0757299
0.036981
0.0151349
0.00498952
0.00125561
0.000222665
2.42629e-05
1.18785e-06
0.542649
0.776042
0.829178
0.848981
0.861837
0.873674
0.887718
0.905788
0.931419
0.963715
0.9905
0.997306
0.999134
0.999686
0.995838
0.985511
0.9691
0.948425
0.925681
0.902862
0.881553
0.862896
0.847626
0.83612
0.828454
0.824462
0.82331
0.824526
0.828006
0.833331
0.840075
0.847838
0.856257
0.865023
0.873882
0.88263
0.891111
0.899212
0.906852
0.91398
0.920566
0.926601
0.932085
0.93703
0.941456
0.945385
0.948847
0.951869
0.954478
0.956707
0.958586
0.96014
0.961399
0.96239
0.963137
0.963665
0.963995
0.964149
0.964146
0.964005
0.963741
0.963371
0.96291
0.962366
0.961755
0.961088
0.96037
0.959612
0.958821
0.958002
0.957161
0.956301
0.955428
0.954545
0.953655
0.95276
0.951861
0.95096
0.95006
0.949162
0.948264
0.947371
0.946482
0.945601
0.944722
0.943836
0.942947
0.942049
0.941146
0.940232
0.939309
0.938372
0.937417
0.936445
0.935447
0.934419
0.933352
0.932245
0.931086
0.929866
0.928578
0.927204
0.925739
0.924166
0.922466
0.920627
0.918625
0.916438
0.914033
0.911373
0.90841
0.905081
0.901299
0.896944
0.891862
0.885823
0.87852
0.869524
0.858251
0.843909
0.825466
0.801605
0.77076
0.731202
0.681274
0.619794
0.546606
0.463204
0.373209
0.282341
0.197625
0.125793
0.0713424
0.0351777
0.0146305
0.00493606
0.00128073
0.000236021
2.69523e-05
1.39612e-06
0.58475
0.790005
0.834396
0.850985
0.862159
0.873335
0.887614
0.906744
0.932091
0.966038
0.994124
0.998727
0.999663
0.999894
0.99403
0.979501
0.957399
0.930476
0.90164
0.873333
0.847383
0.825053
0.807125
0.793968
0.785594
0.781723
0.780725
0.783
0.788037
0.795275
0.80416
0.814178
0.824879
0.835888
0.846905
0.857698
0.868098
0.877981
0.887272
0.895926
0.903917
0.911244
0.917919
0.923962
0.929401
0.934267
0.938597
0.942425
0.945786
0.948717
0.95125
0.953421
0.95526
0.956797
0.95806
0.959078
0.959867
0.960459
0.960871
0.961123
0.961235
0.961218
0.961093
0.96087
0.960561
0.960178
0.95973
0.959224
0.958672
0.958075
0.957445
0.956779
0.95609
0.955374
0.954643
0.953892
0.953127
0.95235
0.951565
0.95077
0.949969
0.949165
0.948356
0.947545
0.946733
0.945915
0.945086
0.944249
0.943403
0.942546
0.941679
0.940797
0.939903
0.93899
0.938057
0.937096
0.936103
0.935073
0.933994
0.932861
0.93166
0.930379
0.929004
0.927518
0.925903
0.924131
0.922183
0.920021
0.91761
0.9149
0.911828
0.908319
0.904266
0.899535
0.893934
0.887211
0.879013
0.868865
0.856127
0.839949
0.819246
0.792692
0.758768
0.715902
0.662728
0.598503
0.523601
0.440016
0.351652
0.264114
0.183847
0.116673
0.0661968
0.0327895
0.0137653
0.00471254
0.00124774
0.000236037
2.78428e-05
1.50021e-06
0.618026
0.799797
0.837189
0.851448
0.861047
0.871572
0.886109
0.906365
0.932705
0.967197
0.996882
0.999515
0.999898
0.999973
0.991521
0.97169
0.942724
0.908568
0.872927
0.838668
0.807804
0.781678
0.761114
0.746476
0.737703
0.73436
0.734204
0.738006
0.745073
0.754664
0.766078
0.778678
0.791922
0.805375
0.818698
0.831645
0.844031
0.855744
0.866706
0.876888
0.886278
0.894884
0.902729
0.909846
0.916272
0.922049
0.927217
0.931822
0.935905
0.939509
0.942669
0.945425
0.947813
0.949865
0.951612
0.953082
0.954306
0.955301
0.956097
0.956708
0.95716
0.957463
0.957638
0.957698
0.957655
0.957519
0.957303
0.957013
0.95666
0.956249
0.955787
0.955278
0.954731
0.954144
0.953528
0.952882
0.95221
0.951515
0.950799
0.950065
0.949318
0.948554
0.94778
0.946999
0.946207
0.945407
0.944589
0.94376
0.942917
0.942061
0.941191
0.940308
0.939407
0.938492
0.937553
0.936588
0.935593
0.934559
0.933481
0.932345
0.931145
0.929867
0.92849
0.927003
0.925381
0.923598
0.921624
0.919424
0.916951
0.914149
0.91095
0.907259
0.902956
0.897881
0.891821
0.884481
0.875464
0.864242
0.850104
0.832148
0.809249
0.780084
0.743215
0.697254
0.641167
0.574644
0.498557
0.415329
0.329055
0.245154
0.169484
0.107026
0.0605766
0.0300265
0.0126596
0.00436999
0.00117159
0.000225409
2.71672e-05
1.50309e-06
0.644216
0.80649
0.838203
0.850267
0.858489
0.868298
0.883093
0.904611
0.932993
0.96742
0.998791
0.999875
0.999979
0.999995
0.988226
0.961847
0.924795
0.882493
0.839474
0.798941
0.763002
0.733026
0.709894
0.694018
0.685274
0.682509
0.683837
0.689927
0.699788
0.712419
0.726911
0.742495
0.758553
0.77461
0.790318
0.80543
0.81978
0.833268
0.845839
0.857475
0.868185
0.877992
0.886932
0.895051
0.902394
0.909018
0.914966
0.920292
0.925043
0.929266
0.933008
0.936309
0.939201
0.94173
0.943923
0.945811
0.947426
0.948793
0.949932
0.950869
0.951622
0.952211
0.952651
0.952959
0.953143
0.953221
0.953198
0.953089
0.9529
0.952637
0.952308
0.95192
0.951479
0.950987
0.950449
0.949871
0.949256
0.948604
0.947922
0.947214
0.946482
0.945725
0.944949
0.944155
0.943347
0.942525
0.941681
0.94082
0.939941
0.939048
0.938137
0.937209
0.936264
0.935298
0.93431
0.933297
0.93225
0.931166
0.930036
0.928851
0.9276
0.92627
0.924844
0.923304
0.921624
0.919781
0.917742
0.915465
0.912902
0.909986
0.906645
0.902767
0.898218
0.892811
0.886301
0.878347
0.868507
0.856186
0.840616
0.820841
0.795711
0.763933
0.724186
0.675316
0.616632
0.548266
0.471551
0.389255
0.30557
0.225657
0.154773
0.0971019
0.0547066
0.0270558
0.0114125
0.00395313
0.00106687
0.000207297
2.5316e-05
1.42416e-06
0.66459
0.810677
0.837493
0.847233
0.854437
0.863411
0.878418
0.901295
0.931913
0.967623
0.999835
0.999989
1
1
0.984047
0.949744
0.903399
0.852182
0.801409
0.75447
0.713407
0.679552
0.653908
0.637088
0.628945
0.625751
0.629637
0.639242
0.653065
0.669703
0.68799
0.707021
0.726142
0.744891
0.762956
0.780137
0.796307
0.81141
0.825417
0.838344
0.850215
0.861076
0.870974
0.879968
0.888114
0.895477
0.902112
0.908073
0.913415
0.918189
0.922443
0.926223
0.929567
0.932515
0.935103
0.937363
0.939324
0.941015
0.942459
0.94368
0.944698
0.945533
0.9462
0.946717
0.947094
0.947346
0.947484
0.947519
0.947458
0.947307
0.947079
0.946775
0.946405
0.945971
0.945478
0.944935
0.944341
0.943703
0.943021
0.942305
0.941554
0.94077
0.93996
0.939127
0.93827
0.937395
0.936495
0.935571
0.934627
0.933665
0.932681
0.931681
0.930662
0.929619
0.928555
0.927462
0.926339
0.925176
0.92397
0.922708
0.92138
0.919973
0.91847
0.916851
0.915093
0.913171
0.911047
0.908678
0.90601
0.902975
0.89948
0.895408
0.890599
0.884838
0.877841
0.869225
0.858487
0.844966
0.827842
0.806121
0.778649
0.744205
0.701626
0.650032
0.589098
0.519393
0.442653
0.361908
0.281349
0.205809
0.139918
0.0871024
0.048764
0.024008
0.010102
0.00349845
0.000946177
0.000184675
2.27077e-05
1.2891e-06
0.680068
0.812864
0.835457
0.842974
0.848826
0.856776
0.871917
0.89626
0.929439
0.96781
1
0.999999
0.999998
0.999999
0.97889
0.935187
0.878415
0.817741
0.759119
0.705877
0.659754
0.621928
0.593669
0.576204
0.569401
0.568345
0.575829
0.589886
0.608423
0.629589
0.651952
0.674509
0.696609
0.717853
0.738014
0.756963
0.77465
0.791063
0.806221
0.820168
0.832955
0.844644
0.855299
0.864988
0.873777
0.881736
0.888922
0.895398
0.901225
0.906455
0.911132
0.915311
0.919032
0.922333
0.925251
0.927822
0.930076
0.932039
0.933739
0.935197
0.936434
0.937468
0.938322
0.939007
0.939536
0.939927
0.940184
0.940325
0.940354
0.940281
0.940114
0.939859
0.939525
0.939115
0.938636
0.938091
0.937484
0.936827
0.936115
0.935359
0.934557
0.933721
0.932848
0.931945
0.931013
0.930059
0.929074
0.928065
0.927034
0.925982
0.924908
0.923814
0.922701
0.921567
0.920409
0.919225
0.918009
0.916759
0.915463
0.914113
0.912702
0.911208
0.909622
0.907924
0.906085
0.904079
0.90187
0.899405
0.896633
0.893468
0.88981
0.885521
0.880415
0.874245
0.86668
0.857286
0.845495
0.830597
0.811723
0.787857
0.757887
0.720705
0.675354
0.621261
0.558493
0.488023
0.41193
0.333411
0.256554
0.185787
0.125099
0.0771965
0.0428882
0.0209828
0.00878746
0.00303398
0.000819486
0.000160008
1.97131e-05
1.12283e-06
0.691329
0.813405
0.832234
0.837368
0.84156
0.848261
0.863398
0.889302
0.925403
0.967197
1
1
0.999998
0.999997
0.97268
0.918008
0.849819
0.779483
0.713308
0.654188
0.603184
0.561103
0.529673
0.511761
0.503734
0.507421
0.522015
0.543559
0.568729
0.595266
0.6218
0.647561
0.672122
0.69528
0.716953
0.737124
0.755817
0.773083
0.788981
0.803579
0.816954
0.829178
0.840327
0.850476
0.859702
0.868068
0.875641
0.882489
0.888664
0.894225
0.899221
0.9037
0.907705
0.911276
0.914451
0.917259
0.919737
0.92191
0.923805
0.925442
0.926844
0.928031
0.92902
0.929826
0.930464
0.930946
0.931282
0.931486
0.931567
0.93153
0.93139
0.931146
0.930809
0.930386
0.929883
0.929304
0.928654
0.927942
0.927169
0.926343
0.925466
0.924543
0.923581
0.922582
0.921553
0.920499
0.919411
0.918298
0.917162
0.916002
0.914826
0.913629
0.912414
0.911179
0.909924
0.908643
0.907338
0.905996
0.904613
0.903182
0.901689
0.900122
0.89846
0.896689
0.894778
0.892701
0.890411
0.887858
0.884977
0.881672
0.877826
0.873273
0.867798
0.861113
0.852834
0.842471
0.8294
0.812864
0.791967
0.765711
0.733066
0.693092
0.645083
0.588808
0.524718
0.454159
0.379468
0.303904
0.23135
0.165764
0.110479
0.0675225
0.0371873
0.0180546
0.00751232
0.00258023
0.000694173
0.000135163
1.66222e-05
9.45768e-07
0.698814
0.812543
0.82784
0.830019
0.831777
0.837732
0.852654
0.880179
0.919598
0.96563
0.999997
0.999997
0.999998
0.999996
0.965345
0.89805
0.817697
0.737988
0.665111
0.601025
0.545544
0.498633
0.462331
0.443304
0.435898
0.449749
0.476518
0.508255
0.540561
0.571728
0.601223
0.628901
0.654734
0.678755
0.701029
0.721633
0.740653
0.758179
0.774299
0.789096
0.802659
0.815072
0.826407
0.836743
0.846154
0.854715
0.862483
0.869522
0.875889
0.881639
0.886822
0.891483
0.895665
0.899407
0.902744
0.905709
0.908332
0.91064
0.912659
0.914413
0.915918
0.917195
0.918264
0.919137
0.919827
0.920352
0.920719
0.920938
0.921024
0.92098
0.920818
0.920545
0.920167
0.919692
0.919128
0.918479
0.917749
0.916949
0.916084
0.915156
0.914175
0.913142
0.912066
0.910952
0.909805
0.908631
0.907425
0.906195
0.904944
0.903673
0.902385
0.901084
0.899766
0.898436
0.897089
0.895724
0.894334
0.892916
0.891463
0.889964
0.88841
0.886783
0.885069
0.883246
0.881281
0.879144
0.876784
0.874142
0.871138
0.867662
0.86357
0.858663
0.852689
0.845307
0.836082
0.824468
0.809795
0.791278
0.768025
0.739112
0.703637
0.660874
0.610426
0.552414
0.487657
0.417808
0.345368
0.273547
0.205918
0.14591