/*--------------------------------*- C++ -*----------------------------------*\
  =========                 |
  \\      /  F ield         | OpenFOAM: The Open Source CFD Toolbox
   \\    /   O peration     | Website:  https://openfoam.org
    \\  /    A nd           | Version:  13
     \\/     M anipulation  |
\*---------------------------------------------------------------------------*/
FoamFile
{
    format      ascii;
    class       volScalarField;
    location    "194.831886";
    object      T;
}
// * * * * * * * * * * * * * * * * * * * * * * * * * * * * * * * * * * * * * //

dimensions      [0 0 0 1 0 0 0];

internalField   nonuniform List<scalar> 
5712
(
1098.53
1098.43
1098.25
1098.09
1097.83
1097.67
1097.23
1097.1
1097.34
1097.19
1097.81
1097.65
1098.14
1098
1098.4
1098.29
1097.71
1097.51
1097.44
1097.16
1096.98
1096.72
1096.73
1096.4
1098.91
1099.53
1098.8
1099.38
1098.65
1099.25
1098.48
1099.04
1098.06
1098.38
1097.77
1098.17
1098.89
1098.55
1097.1
1096.59
1096.83
1096.45
1096.44
1096.02
1096.11
1095.8
1097.72
1097.19
1097.42
1097.02
1098.21
1097.7
1100.24
1100.66
1099.94
1100.37
1099.95
1100.48
1099.61
1100.08
1099.53
1100.24
1099.01
1099.66
1098.6
1099.25
1098.15
1098.8
1097.57
1097.48
1097.13
1097.1
1096.61
1096.49
1096.27
1096.15
1097.97
1098.1
1098.49
1098.52
1096.77
1096.77
1096.43
1096.51
1095.96
1095.86
1095.67
1095.61
1097.55
1097.76
1097.18
1097.48
1098.79
1099.58
1099.1
1100
1099.35
1100.16
1099.54
1100.47
1098.32
1099.09
1098.75
1099.62
1097.92
1098.67
1098.46
1099.33
1101.24
1102.16
1101.39
1102.31
1100.97
1101.82
1101.25
1102.12
1100.51
1101.16
1101
1101.72
1098.19
1097.05
1099.23
1100.01
1100.85
1097.2
1098.41
1099.64
1100.47
1101.39
1096.92
1098
1099.04
1100.03
1100.99
1103.01
1103.41
1103.49
1103.85
1102.58
1103.04
1103.2
1103.59
1101.83
1102.35
1102.71
1103.17
1097.45
1097.86
1098.77
1099.34
1099.99
1100.58
1100.96
1101.55
1102.25
1102.85
1097.11
1097.44
1098.31
1098.91
1099.44
1100.13
1100.57
1101.31
1101.99
1102.78
1097.78
1098.45
1097.29
1097.89
1096.6
1096.77
1096.17
1096.26
1098.49
1099.29
1098.96
1099.82
1096.88
1097.48
1096.62
1097.19
1095.82
1095.91
1095.57
1095.63
1098.06
1098.88
1097.79
1098.59
1099.85
1100.83
1101.54
1102.74
1100.23
1101.26
1101.79
1102.97
1099.5
1100.45
1101.3
1102.48
1099.17
1100.13
1100.95
1102.07
1103.51
1103.66
1103.98
1103.61
1103.65
1103.94
1103.24
1103.43
1103.77
1103.4
1103.46
1103.77
1102.67
1102.94
1103.32
1103.09
1103.19
1103.54
1098.37
1098.95
1099.57
1099.94
1100.44
1100.99
1101.13
1101.56
1102.04
1101.99
1102.35
1102.8
1102.84
1102.99
1103.41
1097.9
1098.55
1099.25
1099.69
1100.37
1101.07
1100.92
1101.52
1102.13
1101.92
1102.35
1102.89
1102.83
1103.04
1103.52
1095.69
1095.48
1095.51
1095.24
1096.27
1096.01
1096.06
1095.74
1095.54
1095.09
1095.49
1095.07
1095.42
1095.02
1095.33
1094.95
1095.04
1095.22
1094.94
1095.14
1094.95
1094.8
1095.03
1094.79
1095.49
1095.22
1094.93
1094.7
1094.77
1094.55
1094.72
1094.5
1094.64
1094.23
1094.71
1094.33
1094.59
1094.17
1094.61
1094.22
1094.54
1094.08
1094.45
1094.03
1094.38
1094
1094.19
1093.87
1095.19
1095.01
1094.96
1094.75
1095.81
1095.64
1095.53
1095.35
1094.56
1094.31
1094.76
1094.53
1094.73
1094.52
1094.49
1094.32
1095.26
1095.1
1095.01
1094.87
1094.35
1094.11
1094.14
1093.93
1094.22
1093.85
1094.01
1093.78
1094.38
1093.99
1094.21
1093.95
1094.05
1093.72
1093.84
1093.64
1093.87
1093.59
1093.68
1093.52
1094.64
1094.82
1094.27
1094.46
1094.64
1094.83
1094.24
1094.44
1094.64
1094.81
1094.21
1094.39
1095.36
1096.08
1094.9
1094.54
1094.16
1096.22
1095.5
1095.07
1094.72
1094.31
1095.95
1095.25
1094.74
1094.4
1094.11
1095.14
1095.58
1094.79
1095.22
1095.12
1095.54
1094.74
1095.15
1095.06
1095.46
1094.64
1095.03
1096.4
1096.74
1095.64
1095.98
1095.2
1095.56
1094.87
1095.23
1094.49
1094.86
1096.06
1096.25
1095.34
1095.53
1094.85
1095.08
1094.53
1094.82
1094.28
1094.65
1094.95
1095.01
1094.69
1094.67
1095.61
1095.65
1095.29
1095.22
1094.3
1094.38
1094.53
1094.67
1094.48
1094.4
1094.29
1094.18
1095.04
1094.91
1094.82
1094.67
1094.12
1094.14
1093.94
1093.94
1094.05
1094.23
1093.93
1094.22
1094.26
1094.5
1094.09
1094.43
1093.88
1094.01
1093.79
1094.04
1093.74
1093.85
1093.66
1093.88
1096.19
1096.79
1097.36
1095.97
1096.65
1097.22
1096.11
1096.72
1097.3
1095.87
1096.56
1097.16
1096
1096.6
1097.19
1095.72
1096.44
1097.07
1097.2
1097.77
1098.4
1096.45
1097.05
1097.69
1096.04
1096.66
1097.32
1095.74
1096.37
1097
1095.55
1096.3
1096.99
1096.61
1097.24
1097.95
1095.91
1096.55
1097.26
1095.52
1096.2
1096.94
1095.35
1096.06
1096.8
1095.37
1096.17
1096.93
1094.05
1094.29
1094.96
1096.21
1094.16
1094.42
1095.11
1096.38
1094
1094.25
1094.92
1096.19
1094.07
1094.35
1095.05
1096.32
1093.94
1094.2
1094.84
1096.07
1093.91
1094.21
1094.9
1096.15
1093.93
1094.26
1095
1096.29
1093.86
1094.24
1095
1096.3
1093.79
1094.11
1094.78
1096.02
1093.81
1094.15
1094.76
1095.88
1093.89
1094.18
1094.78
1095.93
1093.93
1094.23
1094.8
1095.85
1093.7
1094.05
1094.78
1096.07
1093.71
1094.08
1094.73
1095.87
1093.62
1094
1094.75
1096.03
1093.62
1094.02
1094.69
1095.82
1094.07
1094.28
1094.89
1096.06
1094.23
1094.4
1094.92
1095.94
1094.05
1094.27
1094.87
1096.04
1094.22
1094.4
1094.92
1095.93
1094.04
1094.27
1094.85
1095.98
1094.19
1094.39
1094.9
1095.91
1094.03
1094.28
1094.83
1095.9
1094.16
1094.38
1094.89
1095.87
1094.05
1094.32
1094.84
1095.82
1094.47
1094.61
1095.07
1095.81
1094.74
1094.87
1095.34
1096.03
1094.44
1094.6
1095.06
1095.79
1094.71
1094.85
1095.33
1096.02
1094.39
1094.57
1095.04
1095.78
1094.66
1094.82
1095.32
1096.01
1094.31
1094.52
1095.01
1095.75
1094.58
1094.79
1095.29
1095.99
1094.2
1094.47
1094.97
1095.72
1094.5
1094.74
1095.27
1095.97
1094.01
1094.35
1094.92
1095.7
1094.27
1094.61
1095.19
1095.92
1094.1
1094.41
1094.95
1095.71
1094.38
1094.68
1095.23
1095.94
1093.92
1094.3
1094.89
1095.68
1094.17
1094.55
1095.15
1095.89
1093.84
1094.25
1094.86
1095.65
1094.07
1094.49
1095.11
1095.86
1098.13
1099.69
1101.02
1102.11
1102.96
1098.23
1099.77
1101.1
1102.19
1103.03
1098.12
1099.69
1101.02
1102.11
1102.96
1098.21
1099.76
1101.09
1102.18
1103.03
1098.1
1099.68
1101.01
1102.11
1102.95
1098.14
1099.7
1101.04
1102.13
1102.97
1098.18
1099.74
1101.08
1102.17
1103.02
1098.16
1099.72
1101.07
1102.16
1103.01
1098.09
1099.67
1101.01
1102.1
1102.95
1098.17
1099.78
1101.13
1102.22
1103.07
1098.11
1099.7
1101.04
1102.13
1102.98
1098.19
1099.81
1101.16
1102.25
1103.09
1098.09
1099.67
1101.01
1102.11
1102.95
1098.18
1099.8
1101.15
1102.24
1103.09
1098.06
1099.65
1101
1102.1
1102.94
1098.17
1099.8
1101.15
1102.25
1103.09
1098.14
1099.73
1101.07
1102.16
1103
1098.26
1099.87
1101.21
1102.3
1103.14
1098.14
1099.73
1101.07
1102.16
1103
1098.26
1099.87
1101.21
1102.3
1103.14
1098.14
1099.74
1101.08
1102.18
1103.02
1098.26
1099.87
1101.22
1102.31
1103.15
1098.18
1099.79
1101.14
1102.23
1103.07
1098.28
1099.9
1101.24
1102.33
1103.18
1098.25
1099.87
1101.21
1102.3
1103.15
1105.49
1105.75
1105.37
1105.64
1105.16
1105.46
1104.89
1105.24
1104.62
1105.03
1104.22
1104.69
1104.43
1104.89
1104.01
1104.46
1103.78
1104.2
1108.47
1111.75
1114.53
1116.69
1118.18
1108.42
1111.73
1114.53
1116.71
1118.22
1108.42
1111.73
1114.51
1116.68
1118.17
1108.37
1111.71
1114.51
1116.71
1118.22
1108.31
1111.67
1114.47
1116.65
1118.14
1108.27
1111.65
1114.48
1116.68
1118.19
1108.17
1111.58
1114.41
1116.61
1118.11
1108.14
1111.57
1114.43
1116.64
1118.16
1108.01
1111.48
1114.34
1116.55
1118.06
1108
1111.48
1114.36
1116.59
1118.12
1107.65
1111.21
1114.14
1116.39
1117.91
1107.69
1111.25
1114.18
1116.45
1117.98
1107.83
1111.35
1114.24
1116.48
1117.99
1107.86
1111.38
1114.28
1116.53
1118.06
1107.48
1111.07
1114.03
1116.3
1117.83
1107.5
1111.1
1114.06
1116.35
1117.89
1107.29
1110.93
1113.91
1116.2
1117.74
1107.29
1110.94
1113.93
1116.24
1117.8
1095.07
1095.49
1095.83
1095.35
1095.91
1095.85
1095.84
1095.76
1095.98
1095.87
1096.54
1096.4
1096.82
1096.67
1096.4
1096.27
1096.23
1096.15
1096.19
1096.13
1095.36
1095.22
1096.31
1096.76
1096.92
1096.95
1096.54
1096.47
1097.01
1096.34
1097.47
1098.18
1096.42
1096.65
1097.19
1096.55
1096.81
1096.83
1096.01
1095.92
1096.19
1096.07
1095.95
1095.82
1095.93
1096.11
1096.71
1096.59
1096.39
1096.26
1095.54
1095.35
1095.63
1095.47
1095.64
1095.71
1095.98
1096.37
1095.98
1094.62
1094.23
1094.07
1094.07
1094.26
1094.68
1094.37
1094.22
1094.26
1094.51
1095.95
1095.79
1095.77
1095.91
1096.21
1096.42
1096.27
1096.26
1096.41
1096.72
1096.57
1096.42
1096.4
1096.55
1096.86
1096.61
1096.46
1096.46
1096.61
1096.92
1096.19
1096.03
1096.01
1096.15
1096.46
1095.66
1095.17
1094.9
1094.84
1094.97
1096.15
1095.62
1095.34
1095.28
1095.43
1095.77
1095.4
1095.2
1095.2
1095.43
1096.68
1096.17
1095.91
1095.87
1096.07
1097.4
1096.88
1096.62
1096.58
1096.77
1095.98
1095.72
1095.61
1095.68
1095.95
1096.13
1095.8
1095.63
1095.65
1095.9
1096.69
1096.37
1096.21
1096.24
1096.49
1096.14
1095.91
1095.83
1095.92
1096.2
1096.37
1096.11
1096.01
1096.08
1096.35
1096.43
1096.21
1096.14
1096.23
1096.51
1095.27
1094.85
1094.63
1094.6
1094.76
1095.42
1095.12
1094.97
1095
1095.25
1095.77
1095.53
1095.45
1095.53
1095.81
1095.67
1095.46
1095.39
1095.49
1095.78
1095.52
1095.27
1095.17
1095.25
1095.52
1095.42
1095.19
1095.12
1095.22
1095.5
1095.56
1095.37
1095.32
1095.44
1095.74
1095.73
1095.54
1095.5
1095.62
1095.92
1096.34
1096.16
1096.12
1096.24
1096.53
1096.23
1096.06
1096.03
1096.16
1096.46
1096
1095.79
1095.73
1095.84
1096.13
1095.89
1095.7
1095.65
1095.77
1096.06
1094.83
1094.44
1094.25
1094.25
1094.43
1094.85
1094.55
1094.42
1094.47
1094.72
1095.05
1094.7
1094.52
1094.53
1094.74
1095.03
1094.77
1094.67
1094.74
1095.01
1095.22
1094.99
1094.9
1094.99
1095.27
1095.22
1094.93
1094.79
1094.83
1095.08
1095.6
1095.4
1095.35
1095.47
1095.76
1096.01
1095.83
1095.81
1095.94
1096.24
1095.59
1095.38
1095.32
1095.42
1095.71
1095.41
1095.62
1095.43
1095.67
1094.86
1095.11
1094.85
1095.07
1095.45
1095.48
1095.68
1095.63
1094.87
1094.88
1095.1
1095.03
1095.99
1096.55
1096.18
1096.71
1095.99
1096.5
1096.21
1096.71
1096.23
1096.03
1096.11
1095.98
1096.42
1096.62
1095.96
1096.2
1095.85
1096.12
1095.4
1095.65
1095.25
1095.5
1096.5
1096.75
1096.34
1096.64
1096.9
1097.22
1097.06
1097.49
1097.2
1097.61
1097.02
1097.54
1097.21
1097.67
1096.93
1097.65
1097.06
1097.69
1097.32
1097.97
1097.69
1098.35
1095.65
1095.79
1095.76
1095.92
1094.93
1094.97
1095.05
1095.08
1096.44
1096.86
1096.35
1096.72
1095.94
1096.08
1096.16
1096.28
1095.22
1095.23
1095.43
1095.4
1096.62
1097.02
1096.87
1097.24
1097.15
1097.94
1097.83
1098.73
1097.09
1097.94
1097.71
1098.66
1097.32
1098.08
1097.99
1098.86
1097.59
1098.33
1098.21
1099.07
1097.11
1097.38
1097.59
1098.02
1097.07
1097.29
1097.67
1098.08
1096.99
1097.11
1097.81
1098.14
1095.63
1094.88
1096.36
1097.14
1098.12
1094.85
1095.56
1096.3
1097.12
1098.3
1094.91
1095.72
1096.64
1097.64
1098.68
1097.81
1098
1099.13
1099.51
1097.61
1097.79
1099.05
1099.43
1097.31
1097.46
1098.95
1099.33
1094.86
1094.96
1095.62
1095.74
1096.42
1096.54
1097.37
1097.53
1099.07
1099.48
1094.91
1095.01
1095.8
1096.04
1096.8
1097.12
1097.96
1098.35
1099.53
1100.03
1096
1096.43
1096.11
1096.56
1094.99
1095.01
1095.08
1095.08
1097.24
1097.9
1097.1
1097.72
1096.2
1096.72
1096.4
1096.95
1095.2
1095.22
1095.37
1095.41
1097.34
1098.08
1097.56
1098.34
1098.6
1099.45
1100.33
1101.42
1098.38
1099.21
1100.02
1101.04
1098.77
1099.65
1100.59
1101.71
1098.92
1099.87
1100.72
1101.83
1098.05
1098.2
1099.23
1099.24
1097.86
1098.02
1099.18
1099.17
1097.57
1097.82
1099.13
1099.12
1095.16
1095.52
1095.96
1096.3
1096.73
1097.02
1097.68
1097.95
1099.22
1099.18
1095.2
1095.58
1096.38
1096.73
1097.41
1097.67
1098.45
1098.55
1099.52
1099.4
1093.95
1093.93
1094.17
1094.07
1094.36
1094.34
1094.59
1094.49
1093.66
1093.44
1093.86
1093.64
1093.66
1093.46
1093.89
1093.68
1093.85
1093.66
1093.83
1093.68
1093.51
1093.69
1094.28
1094.53
1094.7
1094.94
1094.12
1094.4
1094.04
1094.29
1093.95
1094.21
1093.31
1093.21
1093.5
1093.39
1093.31
1093.19
1093.52
1093.38
1093.33
1093.17
1093.49
1093.3
1093.72
1093.51
1093.95
1093.69
1093.85
1093.83
1093.96
1093.91
1094.32
1094.31
1094.43
1094.4
1093.64
1093.57
1093.54
1093.51
1094.11
1094.01
1094.29
1094.15
1094.59
1094.53
1094.79
1094.68
1093.78
1093.66
1093.95
1093.78
1093.4
1093.23
1093.37
1093.26
1093.32
1093.17
1093.32
1093.23
1093.54
1093.33
1093.44
1093.32
1093.7
1093.45
1093.55
1093.41
1093.22
1093.26
1093.14
1093.2
1093.24
1093.28
1093.14
1093.2
1093.29
1093.32
1093.15
1093.21
1093.81
1094.27
1093.51
1093.3
1093.18
1094.28
1093.84
1093.54
1093.34
1093.22
1094.26
1093.8
1093.49
1093.31
1093.24
1093.4
1093.65
1093.37
1093.64
1093.4
1093.63
1093.35
1093.61
1093.41
1093.62
1093.34
1093.57
1094.27
1094.37
1093.84
1093.95
1093.57
1093.72
1093.39
1093.56
1093.32
1093.53
1094.23
1094.26
1093.78
1093.83
1093.5
1093.59
1093.35
1093.5
1093.32
1093.53
1093.76
1093.73
1093.84
1093.76
1094.23
1094.16
1094.33
1094.2
1093.55
1093.56
1093.49
1093.53
1093.98
1093.86
1094.12
1094.01
1094.48
1094.31
1094.63
1094.47
1093.67
1093.65
1093.79
1093.78
1093.4
1093.51
1093.39
1093.6
1093.35
1093.49
1093.34
1093.56
1093.49
1093.58
1093.46
1093.67
1093.6
1093.7
1093.55
1093.76
1093.95
1094.23
1094.03
1094.36
1093.92
1094.22
1094
1094.35
1093.89
1094.22
1093.95
1094.36
1094.57
1094.93
1094.18
1094.55
1093.95
1094.33
1093.83
1094.21
1093.91
1094.39
1094.41
1094.83
1094.02
1094.45
1093.83
1094.29
1093.8
1094.29
1093.95
1094.5
1093.34
1093.81
1094.63
1095.99
1093.51
1093.98
1094.81
1096.17
1093.33
1093.79
1094.61
1095.98
1093.49
1093.95
1094.78
1096.13
1093.32
1093.78
1094.56
1095.88
1093.42
1093.88
1094.67
1095.99
1093.6
1094.04
1094.85
1096.18
1093.74
1094.15
1094.95
1096.26
1093.36
1093.82
1094.57
1095.88
1093.45
1093.9
1094.59
1095.75
1093.34
1093.8
1094.52
1095.76
1093.43
1093.9
1094.57
1095.69
1093.43
1093.87
1094.65
1095.97
1093.48
1093.93
1094.62
1095.79
1093.52
1093.94
1094.7
1096
1093.54
1093.97
1094.65
1095.79
1093.28
1093.75
1094.53
1095.82
1093.36
1093.83
1094.53
1095.67
1093.29
1093.76
1094.52
1095.81
1093.38
1093.85
1094.54
1095.67
1093.32
1093.79
1094.52
1095.77
1093.4
1093.87
1094.55
1095.67
1093.37
1093.84
1094.53
1095.7
1093.43
1093.9
1094.56
1095.65
1093.44
1093.91
1094.56
1095.63
1093.55
1094.01
1094.67
1095.5
1093.79
1094.25
1094.92
1095.69
1093.55
1094.01
1094.66
1095.49
1093.79
1094.25
1094.92
1095.7
1093.55
1094.02
1094.67
1095.5
1093.79
1094.26
1094.93
1095.7
1093.55
1094.02
1094.67
1095.5
1093.79
1094.27
1094.94
1095.71
1093.56
1094.04
1094.68
1095.5
1093.81
1094.29
1094.95
1095.72
1093.63
1094.1
1094.74
1095.55
1093.85
1094.33
1094.99
1095.76
1093.59
1094.07
1094.71
1095.52
1093.82
1094.3
1094.97
1095.73
1093.69
1094.15
1094.78
1095.59
1093.91
1094.38
1095.03
1095.79
1093.76
1094.2
1094.82
1095.62
1093.99
1094.43
1095.07
1095.82
1098
1099.61
1100.97
1102.08
1102.93
1098.11
1099.69
1101.05
1102.16
1103.01
1098
1099.61
1100.98
1102.08
1102.93
1098.1
1099.69
1101.05
1102.15
1103
1098
1099.61
1100.97
1102.08
1102.93
1098.05
1099.64
1101
1102.1
1102.95
1098.12
1099.7
1101.05
1102.16
1103
1098.14
1099.71
1101.06
1102.16
1103
1098.01
1099.62
1100.98
1102.08
1102.93
1098.1
1099.74
1101.1
1102.21
1103.06
1098.01
1099.64
1101
1102.11
1102.96
1098.11
1099.76
1101.12
1102.23
1103.08
1098.03
1099.63
1100.99
1102.09
1102.94
1098.13
1099.77
1101.13
1102.23
1103.08
1098.04
1099.64
1100.99
1102.09
1102.94
1098.15
1099.79
1101.14
1102.24
1103.09
1098.01
1099.65
1101.01
1102.12
1102.97
1098.12
1099.78
1101.15
1102.26
1103.11
1098.01
1099.65
1101.02
1102.13
1102.98
1098.12
1099.79
1101.16
1102.26
1103.11
1098.03
1099.67
1101.04
1102.15
1103
1098.14
1099.8
1101.17
1102.28
1103.13
1098.08
1099.73
1101.1
1102.2
1103.05
1098.17
1099.83
1101.2
1102.31
1103.15
1098.15
1099.81
1101.18
1102.28
1103.13
1101.94
1102.25
1101.99
1102.3
1102.08
1102.4
1102.23
1102.55
1102.48
1102.75
1103.11
1103.47
1102.83
1103.14
1103.35
1103.75
1103.57
1103.97
1105.88
1109.89
1113.13
1115.57
1117.19
1105.79
1109.84
1113.12
1115.58
1117.23
1105.92
1109.92
1113.15
1115.59
1117.21
1105.84
1109.88
1113.14
1115.61
1117.25
1105.99
1109.97
1113.18
1115.62
1117.23
1105.91
1109.93
1113.18
1115.64
1117.27
1106.12
1110.05
1113.24
1115.66
1117.27
1106.03
1110.01
1113.23
1115.68
1117.31
1106.29
1110.17
1113.33
1115.73
1117.33
1106.17
1110.11
1113.3
1115.74
1117.36
1106.71
1110.46
1113.55
1115.91
1117.48
1106.63
1110.42
1113.53
1115.91
1117.51
1106.5
1110.31
1113.43
1115.81
1117.4
1106.38
1110.24
1113.4
1115.81
1117.43
1106.91
1110.62
1113.67
1116
1117.57
1106.87
1110.59
1113.67
1116.02
1117.6
1107.1
1110.78
1113.79
1116.11
1117.66
1107.08
1110.77
1113.8
1116.13
1117.7
1094.76
1095.15
1094.88
1094.47
1093.96
1094.17
1093.95
1094.2
1094.36
1094.62
1094.36
1094.58
1098.44
1098.38
1098.21
1097.95
1097.6
1097.18
1098.47
1098.41
1098.25
1098.01
1097.69
1097.31
1098.61
1098.87
1098.54
1098.79
1098.36
1098.58
1098.06
1098.24
1097.66
1097.8
1097.2
1097.35
1096.72
1096.3
1095.93
1095.64
1095.42
1095.26
1096.91
1096.52
1096.18
1095.89
1095.66
1095.5
1098.12
1098
1098.02
1098.19
1098.51
1098.06
1097.93
1097.95
1098.12
1098.44
1097.89
1097.76
1097.78
1097.95
1098.27
1097.63
1097.5
1097.52
1097.68
1098
1097.27
1097.14
1097.15
1097.31
1097.63
1096.84
1096.7
1096.71
1096.87
1097.18
1098.15
1098.03
1098.05
1098.22
1098.53
1098.09
1097.96
1097.98
1098.15
1098.47
1097.93
1097.8
1097.82
1097.99
1098.31
1097.69
1097.55
1097.57
1097.74
1098.05
1097.36
1097.22
1097.24
1097.4
1097.71
1096.98
1096.83
1096.84
1097
1097.31
1098.3
1098.17
1098.19
1098.36
1098.68
1098.56
1098.43
1098.45
1098.62
1098.94
1098.22
1098.1
1098.12
1098.29
1098.6
1098.47
1098.34
1098.37
1098.53
1098.85
1098.04
1097.91
1097.93
1098.1
1098.41
1098.26
1098.13
1098.15
1098.32
1098.64
1097.74
1097.61
1097.62
1097.79
1098.11
1097.91
1097.78
1097.8
1097.97
1098.28
1097.34
1097.2
1097.21
1097.38
1097.69
1097.47
1097.34
1097.35
1097.51
1097.82
1096.87
1096.73
1096.73
1096.89
1097.2
1097.02
1096.87
1096.88
1097.03
1097.35
1096.38
1096.23
1096.22
1096.37
1096.68
1095.94
1095.77
1095.76
1095.89
1096.2
1095.56
1095.37
1095.33
1095.46
1095.75
1095.24
1095.02
1094.96
1095.06
1095.35
1094.99
1094.75
1094.66
1094.74
1095.02
1094.81
1094.55
1094.45
1094.52
1094.8
1096.57
1096.42
1096.41
1096.56
1096.87
1096.17
1096
1095.99
1096.13
1096.43
1095.81
1095.63
1095.59
1095.72
1096.02
1095.5
1095.3
1095.25
1095.37
1095.66
1095.26
1095.05
1094.98
1095.09
1095.37
1095.09
1094.87
1094.8
1094.9
1095.18
1098.41
1098.27
1098.04
1097.71
1097.28
1096.79
1098.44
1098.3
1098.08
1097.77
1097.38
1096.94
1098.58
1098.83
1098.43
1098.67
1098.17
1098.39
1097.8
1097.96
1097.33
1097.45
1096.78
1096.9
1096.27
1095.79
1095.43
1095.19
1095.11
1095.15
1096.49
1096.08
1095.75
1095.52
1095.41
1095.42
1098.09
1097.96
1097.99
1098.15
1098.47
1097.95
1097.83
1097.85
1098.02
1098.34
1097.72
1097.59
1097.61
1097.78
1098.1
1097.38
1097.25
1097.27
1097.44
1097.76
1096.96
1096.82
1096.84
1097.01
1097.32
1096.46
1096.32
1096.33
1096.49
1096.81
1098.12
1097.99
1098.01
1098.18
1098.5
1097.99
1097.86
1097.88
1098.05
1098.37
1097.76
1097.63
1097.65
1097.82
1098.14
1097.44
1097.31
1097.33
1097.5
1097.82
1097.05
1096.92
1096.93
1097.1
1097.42
1096.61
1096.47
1096.48
1096.64
1096.96
1098.26
1098.14
1098.16
1098.33
1098.64
1098.52
1098.39
1098.41
1098.58
1098.9
1098.11
1097.99
1098.01
1098.18
1098.5
1098.36
1098.23
1098.25
1098.42
1098.74
1097.85
1097.73
1097.75
1097.92
1098.23
1098.07
1097.94
1097.96
1098.13
1098.45
1097.48
1097.35
1097.37
1097.54
1097.86
1097.64
1097.51
1097.53
1097.7
1098.02
1097
1096.87
1096.89
1097.05
1097.37
1097.12
1096.99
1097.01
1097.17
1097.49
1096.45
1096.32
1096.33
1096.49
1096.81
1096.57
1096.43
1096.44
1096.61
1096.92
1095.93
1095.78
1095.78
1095.94
1096.26
1095.45
1095.29
1095.28
1095.43
1095.74
1095.06
1094.88
1094.86
1094.99
1095.3
1094.8
1094.6
1094.55
1094.66
1094.96
1094.68
1094.45
1094.38
1094.47
1094.76
1094.7
1094.44
1094.35
1094.43
1094.7
1096.15
1096.01
1096.01
1096.16
1096.48
1095.73
1095.57
1095.56
1095.71
1096.02
1095.38
1095.21
1095.19
1095.33
1095.63
1095.14
1094.95
1094.91
1095.04
1095.33
1095.02
1094.81
1094.75
1094.86
1095.15
1095.01
1094.78
1094.72
1094.82
1095.1
1095.16
1095.07
1095.73
1096.26
1096.3
1096.42
1095.93
1094.84
1095
1094.87
1095.34
1095.23
1095.17
1095.48
1095.56
1095.75
1094.8
1094.79
1095.15
1095.18
1094.96
1095.02
1095.3
1095.37
1095.86
1095.85
1095.46
1095.45
1094.97
1094.93
1094.77
1094.88
1094.92
1094.78
1095.26
1095.68
1095.17
1094.43
1094.07
1093.91
1093.93
1094.13
1094.54
1094.23
1094.09
1094.14
1094.39
1095.39
1095.23
1095.22
1095.37
1095.69
1095.93
1095.78
1095.79
1095.95
1096.26
1095.96
1095.82
1095.82
1095.97
1096.29
1096.09
1095.94
1095.95
1096.11
1096.42
1095.59
1095.44
1095.44
1095.59
1095.91
1094.21
1093.87
1093.73
1093.76
1093.97
1094.38
1094.06
1093.93
1093.98
1094.2
1094.41
1094.15
1094.04
1094.12
1094.39
1094.79
1094.51
1094.41
1094.48
1094.74
1094.84
1094.64
1094.59
1094.71
1095.01
1094.75
1094.52
1094.45
1094.54
1094.83
1095.11
1094.93
1094.9
1095.03
1095.33
1095.18
1094.99
1094.95
1095.07
1095.37
1095.39
1095.21
1095.19
1095.32
1095.62
1094.17
1093.85
1093.71
1093.75
1093.96
1094.36
1094.11
1094.03
1094.12
1094.39
1094.77
1094.58
1094.54
1094.67
1094.96
1094.81
1094.63
1094.6
1094.73
1095.03
1094.57
1094.36
1094.31
1094.43
1094.72
1094.64
1094.44
1094.4
1094.52
1094.82
1094.94
1094.76
1094.74
1094.87
1095.18
1095.01
1094.84
1094.83
1094.97
1095.27
1095.5
1095.34
1095.33
1095.47
1095.78
1095.5
1095.35
1095.34
1095.49
1095.8
1095.1
1094.92
1094.9
1095.04
1095.34
1095.09
1094.93
1094.91
1095.05
1095.36
1094.29
1093.95
1093.8
1093.83
1094.04
1094.44
1094.17
1094.06
1094.12
1094.39
1094.24
1093.95
1093.82
1093.88
1094.11
1094.46
1094.22
1094.15
1094.24
1094.52
1094.53
1094.32
1094.26
1094.38
1094.67
1094.34
1094.1
1094
1094.09
1094.37
1094.9
1094.73
1094.7
1094.84
1095.14
1095.34
1095.18
1095.17
1095.32
1095.63
1094.8
1094.62
1094.59
1094.72
1095.02
1095.33
1095.04
1094.93
1094.98
1095.19
1095.58
1095.34
1095.37
1094.78
1094.77
1095.39
1095.44
1094.8
1094.82
1095.94
1096.57
1095.95
1096.51
1096.01
1095.97
1096.41
1095.33
1095.36
1094.76
1094.75
1095.39
1095.43
1094.78
1094.81
1095.98
1096.64
1095.98
1096.57
1096.04
1095.99
1096.46
1095.34
1095.37
1094.76
1094.74
1095.4
1095.45
1094.78
1094.82
1096.01
1096.82
1096.02
1096.72
1096.07
1096.01
1096.58
1095.45
1095.48
1094.86
1094.84
1095.51
1095.56
1094.88
1094.92
1096.17
1097.01
1096.16
1096.91
1096.21
1096.14
1096.74
1095.65
1095.67
1095.05
1095.03
1095.7
1095.76
1095.07
1095.11
1096.37
1097.15
1096.36
1097.07
1096.39
1096.34
1096.91
1095.99
1096.01
1095.4
1095.39
1096.03
1096.08
1095.43
1095.45
1096.67
1097.4
1096.65
1097.32
1096.68
1096.62
1097.15
1093.88
1093.87
1094.28
1094.28
1093.88
1093.88
1094.29
1094.3
1093.58
1093.35
1093.59
1093.38
1093.59
1093.63
1093.45
1093.85
1093.85
1094.26
1094.25
1093.87
1093.88
1094.27
1094.28
1093.54
1093.35
1093.56
1093.39
1093.58
1093.63
1093.46
1093.84
1093.85
1094.25
1094.24
1093.87
1093.89
1094.27
1094.29
1093.56
1093.43
1093.59
1093.47
1093.62
1093.67
1093.53
1093.94
1093.95
1094.34
1094.33
1093.97
1094
1094.37
1094.39
1093.68
1093.61
1093.71
1093.64
1093.76
1093.82
1093.7
1094.14
1094.15
1094.54
1094.53
1094.19
1094.23
1094.56
1094.59
1093.91
1093.87
1093.94
1093.9
1093.99
1094.06
1093.95
1094.51
1094.52
1094.91
1094.89
1094.56
1094.59
1094.93
1094.95
1094.29
1094.21
1094.32
1094.24
1094.36
1094.41
1094.29
1098.55
1098.45
1098.26
1098.1
1097.83
1097.67
1097.23
1097.1
1097.34
1097.19
1097.81
1097.66
1098.15
1098
1098.42
1098.31
1097.71
1097.51
1097.44
1097.16
1096.98
1096.72
1096.74
1096.41
1098.92
1099.54
1098.82
1099.39
1098.65
1099.25
1098.48
1099.04
1098.07
1098.38
1097.78
1098.18
1098.9
1098.55
1097.1
1096.6
1096.83
1096.45
1096.44
1096.02
1096.12
1095.8
1097.72
1097.19
1097.42
1097.02
1098.21
1097.7
1100.25
1100.67
1099.96
1100.39
1099.95
1100.48
1099.61
1100.08
1099.53
1100.24
1099.01
1099.66
1098.6
1099.25
1098.15
1098.8
1097.57
1097.48
1097.14
1097.1
1096.61
1096.49
1096.27
1096.15
1097.97
1098.11
1098.49
1098.52
1096.77
1096.77
1096.44
1096.51
1095.96
1095.86
1095.67
1095.61
1097.55
1097.76
1097.18
1097.48
1098.79
1099.58
1099.11
1100
1099.35
1100.17
1099.54
1100.48
1098.32
1099.09
1098.75
1099.62
1097.92
1098.67
1098.47
1099.33
1101.25
1102.17
1101.4
1102.32
1100.97
1101.82
1101.25
1102.12
1100.51
1101.16
1101
1101.72
1098.19
1097.05
1099.23
1100.01
1100.85
1097.2
1098.41
1099.64
1100.48
1101.39
1096.92
1098
1099.04
1100.03
1100.99
1103.02
1103.43
1103.5
1103.86
1102.58
1103.04
1103.2
1103.59
1101.83
1102.35
1102.71
1103.17
1097.45
1097.86
1098.77
1099.34
1099.99
1100.58
1100.96
1101.55
1102.25
1102.85
1097.11
1097.44
1098.31
1098.91
1099.44
1100.13
1100.57
1101.31
1101.99
1102.78
1097.78
1098.45
1097.3
1097.89
1096.6
1096.77
1096.17
1096.26
1098.49
1099.29
1098.97
1099.82
1096.88
1097.48
1096.62
1097.19
1095.82
1095.91
1095.58
1095.63
1098.06
1098.88
1097.8
1098.6
1099.86
1100.83
1101.54
1102.74
1100.23
1101.26
1101.79
1102.97
1099.5
1100.45
1101.3
1102.48
1099.17
1100.13
1100.95
1102.07
1103.52
1103.67
1103.99
1103.61
1103.65
1103.94
1103.24
1103.43
1103.77
1103.4
1103.46
1103.77
1102.67
1102.94
1103.32
1103.09
1103.19
1103.54
1098.37
1098.95
1099.57
1099.94
1100.44
1100.99
1101.13
1101.56
1102.04
1101.99
1102.35
1102.8
1102.84
1103
1103.41
1097.9
1098.55
1099.25
1099.69
1100.37
1101.07
1100.92
1101.52
1102.13
1101.92
1102.35
1102.89
1102.83
1103.04
1103.52
1095.69
1095.48
1095.51
1095.24
1096.27
1096.01
1096.06
1095.74
1095.55
1095.1
1095.5
1095.08
1095.42
1095.02
1095.33
1094.95
1095.04
1095.22
1094.94
1095.14
1094.95
1094.8
1095.03
1094.79
1095.49
1095.22
1094.93
1094.7
1094.77
1094.55
1094.72
1094.5
1094.64
1094.24
1094.72
1094.34
1094.59
1094.17
1094.61
1094.22
1094.54
1094.09
1094.45
1094.03
1094.38
1094
1094.19
1093.87
1095.19
1095.01
1094.96
1094.75
1095.81
1095.64
1095.53
1095.35
1094.56
1094.31
1094.76
1094.53
1094.73
1094.52
1094.5
1094.32
1095.26
1095.1
1095.01
1094.87
1094.35
1094.11
1094.14
1093.93
1094.22
1093.85
1094.01
1093.78
1094.38
1093.99
1094.21
1093.95
1094.05
1093.72
1093.84
1093.64
1093.87
1093.59
1093.68
1093.52
1094.64
1094.82
1094.27
1094.46
1094.64
1094.83
1094.25
1094.44
1094.64
1094.81
1094.21
1094.39
1095.36
1096.08
1094.9
1094.54
1094.16
1096.22
1095.5
1095.07
1094.72
1094.32
1095.95
1095.25
1094.74
1094.4
1094.11
1095.14
1095.58
1094.79
1095.22
1095.12
1095.54
1094.74
1095.15
1095.06
1095.46
1094.64
1095.03
1096.4
1096.74
1095.64
1095.98
1095.2
1095.56
1094.87
1095.23
1094.49
1094.86
1096.06
1096.25
1095.34
1095.53
1094.85
1095.08
1094.53
1094.82
1094.28
1094.65
1094.96
1095.01
1094.69
1094.67
1095.61
1095.65
1095.29
1095.22
1094.3
1094.38
1094.53
1094.67
1094.48
1094.4
1094.29
1094.18
1095.04
1094.91
1094.82
1094.67
1094.12
1094.14
1093.94
1093.94
1094.05
1094.23
1093.93
1094.22
1094.26
1094.5
1094.09
1094.43
1093.88
1094.01
1093.79
1094.04
1093.74
1093.85
1093.66
1093.88
1096.19
1096.8
1097.37
1095.97
1096.65
1097.22
1096.11
1096.72
1097.3
1095.87
1096.56
1097.16
1096
1096.6
1097.19
1095.72
1096.44
1097.07
1097.2
1097.77
1098.4
1096.45
1097.05
1097.69
1096.04
1096.66
1097.32
1095.74
1096.37
1097
1095.55
1096.3
1096.99
1096.61
1097.24
1097.95
1095.91
1096.55
1097.26
1095.53
1096.2
1096.94
1095.35
1096.06
1096.8
1095.37
1096.17
1096.93
1094.05
1094.29
1094.96
1096.21
1094.17
1094.42
1095.12
1096.38
1094
1094.25
1094.92
1096.18
1094.07
1094.35
1095.05
1096.32
1093.94
1094.2
1094.84
1096.07
1093.91
1094.21
1094.9
1096.15
1093.93
1094.26
1095
1096.29
1093.86
1094.24
1095
1096.3
1093.79
1094.11
1094.78
1096.02
1093.81
1094.15
1094.76
1095.88
1093.89
1094.18
1094.78
1095.93
1093.93
1094.23
1094.8
1095.85
1093.7
1094.05
1094.78
1096.07
1093.71
1094.08
1094.73
1095.87
1093.62
1094
1094.75
1096.03
1093.62
1094.02
1094.69
1095.82
1094.07
1094.28
1094.89
1096.07
1094.23
1094.4
1094.92
1095.95
1094.06
1094.27
1094.87
1096.04
1094.22
1094.4
1094.92
1095.93
1094.04
1094.27
1094.85
1095.98
1094.19
1094.39
1094.91
1095.91
1094.03
1094.28
1094.83
1095.9
1094.16
1094.38
1094.89
1095.87
1094.05
1094.32
1094.84
1095.82
1094.47
1094.61
1095.07
1095.81
1094.74
1094.86
1095.34
1096.02
1094.44
1094.6
1095.06
1095.79
1094.71
1094.85
1095.33
1096.02
1094.39
1094.57
1095.05
1095.78
1094.66
1094.82
1095.32
1096.01
1094.31
1094.52
1095.01
1095.75
1094.58
1094.79
1095.29
1095.99
1094.2
1094.47
1094.97
1095.72
1094.5
1094.74
1095.27
1095.97
1094.01
1094.35
1094.92
1095.69
1094.27
1094.61
1095.19
1095.92
1094.1
1094.41
1094.95
1095.71
1094.38
1094.68
1095.23
1095.94
1093.92
1094.3
1094.89
1095.68
1094.17
1094.55
1095.15
1095.89
1093.84
1094.25
1094.86
1095.65
1094.07
1094.49
1095.11
1095.86
1098.13
1099.69
1101.02
1102.11
1102.96
1098.23
1099.77
1101.1
1102.19
1103.04
1098.12
1099.69
1101.02
1102.11
1102.96
1098.21
1099.76
1101.09
1102.18
1103.03
1098.1
1099.68
1101.01
1102.11
1102.95
1098.14
1099.7
1101.04
1102.13
1102.97
1098.18
1099.74
1101.08
1102.17
1103.02
1098.16
1099.72
1101.07
1102.16
1103.01
1098.09
1099.67
1101.01
1102.1
1102.95
1098.17
1099.78
1101.13
1102.22
1103.07
1098.11
1099.7
1101.04
1102.13
1102.98
1098.19
1099.81
1101.16
1102.25
1103.09
1098.09
1099.67
1101.01
1102.11
1102.95
1098.18
1099.8
1101.15
1102.24
1103.09
1098.06
1099.65
1101
1102.1
1102.94
1098.17
1099.8
1101.15
1102.25
1103.09
1098.14
1099.73
1101.06
1102.15
1103
1098.26
1099.87
1101.2
1102.29
1103.14
1098.14
1099.73
1101.07
1102.16
1103
1098.26
1099.87
1101.21
1102.3
1103.14
1098.14
1099.74
1101.08
1102.18
1103.02
1098.26
1099.87
1101.22
1102.31
1103.15
1098.18
1099.79
1101.14
1102.23
1103.07
1098.28
1099.9
1101.24
1102.33
1103.18
1098.25
1099.87
1101.21
1102.3
1103.15
1105.49
1105.76
1105.37
1105.64
1105.16
1105.46
1104.89
1105.24
1104.63
1105.03
1104.22
1104.69
1104.43
1104.89
1104.01
1104.46
1103.79
1104.2
1108.47
1111.76
1114.53
1116.7
1118.18
1108.42
1111.73
1114.53
1116.71
1118.22
1108.42
1111.73
1114.51
1116.68
1118.17
1108.37
1111.71
1114.52
1116.71
1118.22
1108.31
1111.67
1114.47
1116.65
1118.14
1108.27
1111.65
1114.48
1116.68
1118.19
1108.17
1111.58
1114.41
1116.61
1118.11
1108.14
1111.57
1114.43
1116.64
1118.16
1108.01
1111.48
1114.34
1116.55
1118.06
1108
1111.48
1114.36
1116.59
1118.12
1107.65
1111.21
1114.14
1116.39
1117.91
1107.69
1111.25
1114.18
1116.45
1117.98
1107.83
1111.35
1114.24
1116.48