/*--------------------------------*- C++ -*----------------------------------*\
  =========                 |
  \\      /  F ield         | OpenFOAM: The Open Source CFD Toolbox
   \\    /   O peration     | Website:  https://openfoam.org
    \\  /    A nd           | Version:  13
     \\/     M anipulation  |
\*---------------------------------------------------------------------------*/
FoamFile
{
    format      ascii;
    class       volScalarField;
    location    "404.831886";
    object      T;
}
// * * * * * * * * * * * * * * * * * * * * * * * * * * * * * * * * * * * * * //

dimensions      [0 0 0 1 0 0 0];

internalField   nonuniform List<scalar> 
5712
(
425.032
426.294
428.287
430.202
432.269
434.344
436.721
438.585
434.489
436.658
430.924
432.996
427.911
429.738
425.364
426.737
434.752
437.892
438.255
442.525
440.434
444.326
443.942
448.958
422.53
418.04
423.773
419.414
425.792
421.382
427.759
423.376
433.306
429.61
437.077
432.313
425.478
429.045
442.344
448.761
446.787
451.66
447.911
453.742
453.063
457.539
437.21
443.546
441.298
446.213
432.679
438.7
412.85
409.075
414.841
410.739
416.129
411.366
418.688
414.061
420.933
414.612
425.7
419.345
429.794
423.265
435.012
428.116
438.493
440.121
443.96
445.181
446.255
447.941
451.19
452.851
436.809
436.991
431.016
432.003
448.727
449.415
453.146
452.959
455.63
456.964
459.798
460.441
441.786
441.195
446.414
444.685
429.63
422.101
428.73
420.884
423.975
416.766
423.931
416.163
434.59
426.872
432.791
424.808
439.289
431.357
436.142
428.06
404.898
397.952
403.624
397.075
407.784
400.961
405.435
398.994
412.423
406.783
408.439
402.947
431.515
440.075
423.594
417.783
411.026
437.784
428.753
419.15
413.184
406.514
441.928
433.871
426.15
418.812
411.312
391.639
387.472
389.48
385.958
394.919
390.128
391.784
387.963
400.887
395.339
395.921
391.357
434.246
428.318
424.574
417.507
415.547
408.708
408.803
402.413
400.407
394.682
439.168
434.178
430.187
423.14
421.983
414.509
413.979
406.434
404.145
396.902
436.892
429.16
442.664
435.564
446.035
441.923
451.642
448.213
433.323
425.125
427.911
419.308
447.543
440.414
450.954
444.021
456.17
452.748
459.552
456.348
438.164
429.802
441.468
433.22
422.944
414.219
410.671
401.339
418.537
409.362
407.488
398.249
426.878
418.386
413.543
404.357
430.526
421.82
417.045
408.194
384.206
380.658
376.621
384.294
381.233
377.326
386.267
382.312
378.011
385.954
382.633
378.412
390.473
385.838
381.032
388.513
384.542
379.8
421.154
413.445
405.672
409.642
402.753
395.96
401.52
395.246
389.184
396.153
390.434
384.692
390.727
385.885
380.349
427.106
418.032
408.915
413.342
404.36
395.881
404.642
396.368
388.732
397.847
390.624
383.708
391.166
385.345
379.015
450.401
453.793
453.415
457.868
445.916
449.896
449.209
454.266
448.089
452.219
448.985
452.699
450.569
454.126
452.065
455.247
457.166
454.217
459.697
456.051
456.28
458.731
461.3
465.258
458.154
462.31
459.349
463.533
462.611
466.282
460.372
464.367
456.685
460.569
455.869
459.06
458.2
461.924
458.158
461.172
460.106
463.823
462.114
464.958
463.658
465.591
466.982
467.918
457.301
459.895
461.51
464.208
452.625
454.764
457.165
459.381
464.244
467.454
460.387
463.557
465.4
467.847
469.161
470.971
461.321
463.272
465.27
466.602
467.803
470.769
471.365
473.629
466.36
468.25
469.122
469.344
463.181
465.723
465.688
466.485
469.353
470.515
472.077
471.783
472.542
472.924
474.625
473.874
455.006
451.586
459.631
456.392
455.785
452.182
460.334
456.977
457.046
453.824
461.49
458.503
453.383
447.593
456.823
459.892
462.838
445.35
450.932
453.643
456.682
460.186
449.561
455.379
459.582
462.221
463.642
446.608
440.227
451.399
445.14
447.571
441.359
452.482
446.466
449.624
443.593
454.554
448.901
442.322
436.919
448.299
442.675
451.381
445.697
454.107
448.364
457.531
452.102
447.407
443.589
453.353
449.432
457.426
453.104
459.8
454.824
461.039
455.437
459.431
456.686
463.793
461.784
454.03
451.42
458.896
457.148
466.582
463.661
462.702
459.134
467.196
465.696
470.205
468.889
462.707
461.406
465.948
464.882
469.741
467.278
472.502
470.188
467.648
463.657
466.806
461.809
464.191
459.563
464.151
458.705
470.485
467.028
469.079
464.535
472.913
469.561
471.22
467.106
431.895
423.837
416.405
434.857
425.664
418.115
433.421
425.182
417.52
436.549
427.221
419.273
435.989
427.758
419.836
439.321
429.423
420.84
430.054
422.097
413.88
435.603
427.276
418.73
438.519
429.774
421.001
440.784
431.914
423.211
442.319
431.755
422.297
437.41
428.238
418.56
442.991
433.505
423.53
446.002
435.981
425.634
446.794
436.357
425.931
445.082
433.843
423.358
460.803
455.582
445.663
430.122
458.916
453.479
443.426
428
461.698
456.23
446.195
430.454
460.504
454.683
444.418
428.794
462.896
457.048
447.27
431.849
463.401
457.05
446.724
430.983
463.075
456.169
445.241
429.33
464.329
456.715
445.345
429.361
465.633
458.736
448.377
432.586
465.302
457.866
448.151
433.765
463.753
457.425
448.019
433.363
463.243
456.426
447.415
433.89
467.166
459.698
448.549
432.147
467.088
459.113
448.797
433.958
468.729
460.687
449.125
432.732
468.649
460.194
449.528
434.635
460.427
455.608
446.418
431.625
457.768
453.463
445.489
432.435
460.724
455.715
446.599
431.883
457.941
453.439
445.487
432.555
461.159
455.804
446.887
432.54
458.602
453.668
445.647
432.829
461.37
455.565
446.962
433.344
459.227
453.828
445.834
433.294
461.184
454.946
446.629
433.988
453.757
449.914
442.639
432.73
449.306
445.783
438.384
428.868
454.311
450.203
442.847
432.934
449.871
446.05
438.535
428.967
455.321
450.711
443.143
433.143
450.857
446.507
438.769
429.161
456.761
451.473
443.677
433.57
452.181
447.164
439.146
429.421
458.572
452.463
444.319
434.019
453.695
447.913
439.549
429.666
461.92
454.363
445.254
434.468
457.427
450.059
440.861
430.515
460.29
453.408
444.763
434.214
455.589
448.983
440.2
430.099
463.371
455.241
445.714
434.73
459.103
451.069
441.473
430.99
464.764
456.147
446.319
435.21
460.637
452.046
442.11
431.477
409.38
393.808
381.404
371.919
365.033
408.21
392.949
380.68
371.279
364.452
409.539
393.888
381.451
371.95
365.057
408.451
393.094
380.778
371.352
364.513
409.83
394.015
381.526
372.002
365.1
409.347
393.772
381.334
371.829
364.94
408.918
393.371
380.957
371.478
364.613
409.258
393.597
381.108
371.585
364.697
410.045
394.132
381.595
372.048
365.134
409.06
392.922
380.477
371.04
364.213
409.789
393.815
381.316
371.806
364.918
408.724
392.622
380.228
370.828
364.026
410.106
394.162
381.595
372.031
365.111
408.983
392.811
380.355
370.918
364.096
410.459
394.381
381.74
372.133
365.19
409.103
392.831
380.333
370.877
364.049
409.213
393.416
381.025
371.578
364.724
407.772
391.938
379.709
370.408
363.664
409.257
393.402
380.994
371.543
364.689
407.817
391.945
379.702
370.397
363.651
409.253
393.294
380.87
371.422
364.575
407.821
391.89
379.634
370.327
363.584
408.848
392.78
380.387
370.981
364.172
407.612
391.654
379.406
370.115
363.388
408.015
391.999
379.692
370.359
363.603
378.589
376.84
379.674
377.889
381.733
379.69
384.464
381.935
387.44
384.313
392.582
389.125
390.098
386.632
394.855
391.599
397.058
394.128
364.247
350.177
339.449
331.709
326.601
364.278
350.164
339.347
331.59
326.428
364.742
350.413
339.573
331.781
326.651
364.759
350.374
339.473
331.633
326.466
365.743
350.909
339.841
331.939
326.761
365.723
350.85
339.728
331.783
326.57
367.123
351.619
340.231
332.171
326.921
366.987
351.498
340.083
331.992
326.714
368.768
352.512
340.735
332.474
327.132
368.387
352.258
340.512
332.252
326.896
372.281
354.632
342.02
333.289
327.723
371.734
354.241
341.699
333.003
327.445
370.544
353.554
341.353
332.859
327.406
369.988
353.175
341.046
332.582
327.134
373.93
355.693
342.696
333.734
328.052
373.547
355.4
342.436
333.489
327.807
375.529
356.747
343.38
334.188
328.389
375.371
356.571
343.207
334.002
328.177
460.955
457.967
452.704
456.119
444.675
445.707
446.619
448.052
446.324
448.132
441.965
443.893
438.356
440.554
441.424
443.371
442.154
443.623
441.657
442.791
454.88
453.013
428.998
421.525
420.116
418.991
425.557
440.907
433.619
438.275
426.267
416.98
432.809
432.479
424.581
429.49
427.245
425.187
445.921
442.048
435.024
435.522
438.983
439.488
435.989
433.468
424.894
425.711
430.658
431.505
451.951
450.066
448.39
446.356
442.791
444.694
435.682
428.8
436.464
462.856
466.185
466.831
465.033
460.816
459.596
462.763
463.381
461.33
456.368
433.774
435.826
435.74
433.449
428.935
425.962
427.816
427.651
425.425
421.138
424.536
426.41
426.29
424.124
419.9
423.336
425.153
424.991
422.811
418.612
430.189
432.166
432.061
429.814
425.41
449.048
453.29
454.949
454.097
450.865
441.967
446.467
448.267
447.525
444.132
444.718
448.26
449.476
448.052
443.712
433.882
438.14
439.709
438.786
435.093
423.98
428.145
429.66
428.816
425.35
438.285
441.025
441.554
439.664
435.221
438.444
441.663
442.636
441.083
436.799
430.132
433.112
433.972
432.454
428.384
434.641
437.113
437.435
435.444
431.044
432.487
435.108
435.603
433.775
429.504
430.128
432.476
432.746
430.787
426.516
453.786
457.444
458.665
457.428
453.751
448.157
451.319
452.139
450.362
445.762
440.418
443.024
443.395
441.354
436.79
440.803
443.268
443.494
441.335
436.706
444.593
447.333
447.779
445.742
441.082
444.947
447.51
447.775
445.586
440.843
441.138
443.44
443.495
441.2
436.499
438.523
440.784
440.837
438.579
433.959
429.627
431.743
431.789
429.667
425.335
430.405
432.451
432.414
430.215
425.827
435.72
438.064
438.246
436.131
431.647
436.514
438.773
438.857
436.653
432.11
459.723
463.195
464.042
462.427
458.444
456.382
459.465
460.063
458.017
453.108
455.34
458.607
459.521
457.873
453.597
452.248
455.084
455.517
453.368
448.477
448.429
451.102
451.427
449.239
444.414
450.793
453.881
454.616
452.745
448.04
440.847
443.178
443.268
441.003
436.322
433.608
435.707
435.672
433.423
428.932
441.735
444.165
444.342
442.131
437.456
466.481
462.623
466.356
462.14
471.443
467.02
471.517
467.534
466.227
465.97
462.395
463.545
471.427
471.207
467.582
468.929
460.948
455.213
457.385
451.907
461.011
455.906
456.985
451.993
457.324
460.768
459.057
461.347
456.839
453.324
457.867
454.212
460.167
456.264
462.806
458.999
465.594
461.883
453.086
449.281
455.53
451.28
449.031
444.756
449.546
444.041
446.491
441.232
450.288
443.954
446.593
440.924
451.813
443.734
449.134
441.721
445.229
437.827
440.563
433.3
464.121
462.397
462.513
460.747
470.352
469.474
468.733
467.961
456.264
452.538
457.868
454.216
459.982
458.658
456.821
456.044
466.272
465.952
463.259
463.449
453.663
450.44
450.329
447.764
449.337
440.73
443.816
435.127
450.747
441.707
445.337
436.287
446.759
438.493
441.797
433.352
443.328
435.27
439.147
430.918
450.474
449.019
444.612
442.222
451.184
449.91
444.236
441.848
452.203
451.528
443.432
441.402
464.492
470.848
458.107
450.899
441.099
471.012
465.033
458.709
451.256
440.146
470.203
463.296
455.198
446.247
436.701
445.661
442.943
434.314
430.085
447.312
444.584
434.845
430.603
449.759
447.298
435.444
431.152
470.445
468.161
464.116
461.728
457.3
455.036
448.946
446.495
434.273
429.804
469.634
466.95
462.077
458.22
453.42
449.14
443.48
438.923
430.484
425.44
459.76
453.927
458.058
452.146
468.348
465.704
466.716
464.177
448.544
441.405
450.35
443.446
456.43
449.943
453.876
447.077
464.854
462.007
462.413
459.34
446.992
439.202
444.365
436.235
437.322
429.326
423.666
414.796
439.642
431.699
426.446
417.937
435.355
427.188
421.175
412.165
433.409
424.74
419.493
410.651
440.326
437.039
429.481
427.308
442.052
438.444
429.784
427.58
444.378
439.724
429.954
427.217
463.985
457.239
457.472
451.177
451.256
445.663
443.053
437.665
428.814
425.608
462.273
454.853
452.449
445.631
443.767
437.945
434.912
430.353
425.206
422.084
478.823
478.961
474.943
476.605
475.722
475.764
471.793
473.451
480.426
481.177
476.479
477.326
480.468
481.257
476.212
477.134
477.093
480.582
478.133
480.556
481.167
477.706
473.243
469.382
470.195
466.493
472.569
468.358
474.585
470.561
473.224
469.166
480.998
479.519
477.233
475.954
481.351
479.903
477.302
476.247
481.853
480.45
478.962
477.95
474.912
474.238
471.061
471.039
479.202
478.803
477.63
477.612
475.494
475.105
473.902
473.734
479.702
479.694
481.235
480.721
475.245
475.872
472.387
473.661
471.498
471.837
468.585
469.473
477.337
478.126
474.524
476.093
480.531
479.328
480.074
478.329
481.984
480.354
480.947
478.939
478.216
477.509
478.686
477.236
475.505
475.301
476.845
475.711
482.695
482.21
480.98
480.134
482.787
482.209
481.012
480.052
482.701
482.223
480.895
480.021
479.633
475.97
481.643
482.287
480.329
475.894
479.447
481.393
481.981
479.764
475.743
479.282
481.075
481.206
479.007
479.806
475.542
477.389
473.017
480.149
476.12
477.644
473.444
480.61
476.991
478.017
474.139
475.438
473.174
478.972
476.458
480.565
477.731
480.735
477.529
478.101
474.541
475.456
473.446
478.892
476.703
480.397
477.707
480.137
476.791
477.559
473.896
478.463
476.691
476.976
475.602
474.885
473.467
473.184
472.161
478.62
476.377
479.869
477.271
474.961
473.848
472.777
471.546
471.018
470.214
468.69
467.743
476.884
474.809
474.868
472.65
478.341
475.084
475.706
471.745
479.413
475.773
476.718
472.62
476.908
473.798
474.411
470.412
475.125
471.854
472.98
468.992
470.338
465.374
466.692
461.098
471.264
465.915
467.169
461.254
472.245
466.18
467.874
460.972
468.975
462.067
471.999
465.007
473.22
466.313
472.683
465.566
468.228
460.064
469.233
461.359
472.191
464.082
472.674
464.392
471.088
462.657
466.994
457.849
473.786
464.149
451.309
433.752
470.635
461.252
448.584
431.343
473.99
464.359
451.515
433.809
470.981
461.654
449.037
431.763
474.138
464.511
452.186
434.928
472.269
462.971
450.697
433.545
468.961
460.115
447.894
431.058
466.452
458.144
446.308
429.999
473.264
463.868
451.87
434.914
471.66
462.175
451.166
435.91
473.743
464.098
452.509
436.276
471.986
462.302
451.416
436.593
472.019
462.977
450.808
433.698
470.982
461.766
450.691
435.37
470.404
461.821
449.91
433.273
469.967
461.095
450.177
435.126
474.845
465.037
452.622
435.633
473.479
463.603
452.171
436.851
474.645
464.839
452.584
435.703
473.163
463.292
451.966
436.809
474.148
464.354
452.503
436.082
472.748
462.887
451.706
436.768
473.17
463.375
452.134
436.627
472.17
462.321
451.422
436.884
471.813
462.018
451.369
437.109
470.221
460.384
449.509
437.676
465.941
456.235
445.274
433.991
470.212
460.367
449.529
437.736
465.911
456.191
445.238
433.955
470.102
460.248
449.412
437.622
465.781
456.041
445.096
433.882
469.944
460.079
449.364
437.606
465.622
455.856
444.957
433.773
469.648
459.793
449.257
437.584
465.326
455.532
444.7
433.557
468.215
458.616
448.239
436.767
464.301
454.676
444.051
432.959
469.034
459.265
448.781
437.197
464.966
455.209
444.463
433.347
467.188
457.834
447.562
436.201
463.268
453.886
443.431
432.502
466.038
457.015
446.941
435.71
462.008
452.978
442.759
431.98
411.429
395.001
382.105
372.354
365.344
410.148
394.087
381.351
371.695
364.75
411.411
394.976
382.09
372.346
365.341
410.147
394.088
381.364
371.716
364.774
411.484
394.972
382.087
372.351
365.349
410.765
394.6
381.821
372.132
365.156
409.902
393.947
381.296
371.689
364.764
409.631
393.816
381.237
371.665
364.755
411.327
394.874
382.03
372.317
365.327
410.183
393.564
380.852
371.273
364.38
411.298
394.682
381.823
372.121
365.143
410.063
393.385
380.673
371.105
364.223
410.99
394.675
381.897
372.218
365.245
409.746
393.249
380.611
371.076
364.209
410.767
394.56
381.845
372.198
365.237
409.369
392.984
380.423
370.932
364.089
411.356
394.647
381.745
372.025
365.044
409.957
393.176
380.432
370.856
363.984
411.271
394.556
381.67
371.962
364.989
409.903
393.125
380.391
370.824
363.957
411.062
394.326
381.474
371.796
364.843
409.722
392.963
380.26
370.715
363.862
410.454
393.691
380.919
371.311
364.408
409.285
392.598
379.958
370.457
363.633
409.485
392.832
380.179
370.661
363.819
412.646
410.258
412.292
409.86
411.501
409.007
410.244
407.813
408.233
406.169
403.161
400.63
405.471
403.233
401.087
398.322
399.107
396.31
386.24
363.519
347.682
337.023
330.449
386.633
363.665
347.636
336.928
330.271
385.957
363.345
347.576
336.955
330.402
386.275
363.43
347.522
336.816
330.206
385.386
363
347.367
336.822
330.307
385.717
363.1
347.325
336.691
330.118
384.491
362.465
347.041
336.612
330.155
384.897
362.617
347.033
336.504
329.982
383.204
361.705
346.574
336.306
329.931
383.833
361.998
346.654
336.257
329.802
380.127
359.834
345.4
335.536
329.375
380.512
360.027
345.437
335.474
329.251
381.688
360.817
346.023
335.945
329.668
382.313
361.132
346.124
335.915
329.56
378.609
358.83
344.749
335.104
329.063
378.757
358.886
344.71
335.001
328.916
377.074
357.788
344.064
334.645
328.727
377.066
357.714
343.959
334.503
328.546
465.883
463.042
467.016
470.035
478.63
474.615
478.715
474.277
475.622
471.097
475.608
471.589
395.941
397.006
399.445
403.271
408.476
414.887
395.803
396.823
399.152
402.75
407.516
413.229
393.983
391.211
395.154
392.5
397.83
395.443
402.081
400.211
407.836
406.437
414.691
413.073
422.03
429.16
435.745
441.638
446.315
449.527
419.506
425.846
431.815
437.059
441.202
443.944
399.363
400.713
400.457
398.594
395.152
400.469
401.838
401.584
399.705
396.227
403
404.412
404.16
402.241
398.68
406.97
408.449
408.203
406.224
402.534
412.376
413.951
413.717
411.659
407.795
419.044
420.747
420.537
418.389
414.314
399.221
400.572
400.318
398.46
395.023
400.281
401.651
401.4
399.526
396.055
402.699
404.11
403.863
401.953
398.404
406.436
407.912
407.672
405.706
402.036
411.388
412.954
412.728
410.692
406.863
417.33
419.013
418.81
416.696
412.681
397.336
398.658
398.405
396.578
393.204
394.466
395.749
395.503
393.729
390.452
398.551
399.893
399.642
397.797
394.383
395.803
397.109
396.864
395.069
391.748
401.326
402.714
402.465
400.575
397.071
398.856
400.21
399.967
398.123
394.702
405.738
407.199
406.954
404.996
401.348
403.804
405.241
405.002
403.081
399.499
411.714
413.279
413.046
411
407.159
410.27
411.822
411.597
409.581
405.79
418.842
420.543
420.335
418.192
414.124
417.172
418.858
418.661
416.553
412.545
426.486
428.349
428.184
425.951
421.647
433.938
435.988
435.898
433.602
429.082
440.859
443.124
443.145
440.827
436.122
447.1
449.604
449.77
447.471
442.622
452.1
454.812
455.104
452.835
447.887
455.52
458.338
458.677
456.401
451.374
423.871
425.695
425.532
423.344
419.127
430.492
432.477
432.374
430.125
425.713
436.748
438.907
438.884
436.596
432.009
442.263
444.595
444.661
442.356
437.624
446.632
449.105
449.242
446.927
442.082
449.511
452.057
452.221
449.882
444.957
396.248
397.936
401.028
405.56
411.548
418.852
396.11
397.754
400.731
405.013
410.501
416.951
394.294
391.527
396.097
393.461
399.443
397.096
404.433
402.642
411.01
409.708
418.888
417.499
426.922
434.792
441.703
447.112
450.24
450.964
423.896
430.675
436.665
441.309
444.145
445
399.679
401.032
400.773
398.903
395.449
401.427
402.804
402.542
400.641
397.128
404.63
406.054
405.788
403.831
400.211
409.326
410.82
410.55
408.513
404.737
415.534
417.124
416.853
414.713
410.731
423.111
424.825
424.558
422.298
418.068
399.538
400.891
400.635
398.769
395.321
401.24
402.617
402.358
400.462
396.956
404.324
405.747
405.484
403.535
399.927
408.764
410.253
409.989
407.966
404.21
414.455
416.035
415.771
413.656
409.713
421.149
422.842
422.587
420.368
416.207
397.655
398.98
398.725
396.892
393.506
394.792
396.078
395.829
394.048
390.759
399.522
400.873
400.614
398.747
395.299
396.795
398.108
397.856
396.039
392.683
402.988
404.389
404.125
402.198
398.633
400.559
401.927
401.669
399.786
396.303
408.158
409.635
409.366
407.35
403.613
406.305
407.758
407.494
405.512
401.837
414.976
416.556
416.284
414.153
410.19
413.629
415.193
414.925
412.82
408.902
423.145
424.855
424.584
422.321
418.088
421.708
423.399
423.131
420.894
416.71
431.494
433.356
433.107
430.726
426.226
439.688
441.718
441.511
439.029
434.276
446.919
449.137
449.009
446.473
441.513
452.646
455.077
455.076
452.555
447.462
456.059
458.698
458.85
456.407
451.274
456.965
459.752
460.034
457.691
452.595
428.367
430.193
429.958
427.638
423.247
435.428
437.402
437.206
434.803
430.194
441.693
443.826
443.695
441.241
436.45
446.586
448.882
448.839
446.377
441.461
449.618
452.058
452.111
449.681
444.706
450.581
453.113
453.245
450.863
445.891
457.506
455.025
435.481
426.812
426.623
424.53
432.156
462.461
459.676
456.931
451.953
446.891
450.122
441.617
441.173
437.052
462.03
456.47
447.339
446.093
451.156
449.321
443.49
442.028
434.298
433.836
441.255
440.844
459.643
455.568
459.836
453.912
451.734
456.61
444.126
436.45
446.091
465.459
468.607
469.096
467.131
462.721
461.603
464.696
465.214
463.051
457.981
440.385
442.406
442.178
439.667
434.883
431.371
433.22
432.96
430.571
426.071
431.181
433.034
432.78
430.4
425.907
429.002
430.811
430.548
428.195
423.771
436.922
438.87
438.622
436.153
431.473
469.765
472.46
472.624
470.297
465.765
466.729
469.217
469.201
466.752
462.021
462.996
465.68
465.795
463.244
457.92
458.404
460.637
460.47
457.946
452.946
452.319
454.629
454.511
451.903
446.778
455.776
458.211
458.171
455.587
450.401
446.8
448.978
448.811
446.248
441.28
446.362
448.556
448.413
445.878
440.935
442.052
444.142
443.961
441.463
436.644
469.366
472.149
472.371
470.075
465.485
462.465
465.129
465.227
462.656
457.319
452.77
455.081
454.956
452.333
447.187
451.459
453.731
453.585
450.965
445.852
456.791
459.229
459.173
456.546
451.304
454.86
457.243
457.16
454.538
449.341
448.753
450.977
450.825
448.242
443.213
447.204
449.367
449.176
446.584
441.59
439.166
441.177
440.957
438.474
433.732
438.673
440.658
440.421
437.931
433.198
446.406
448.56
448.373
445.799
440.833
445.969
448.104
447.904
445.325
440.367
467.34
470.315
470.706
468.603
464.084
461.88
464.793
465.137
462.801
457.605
466.654
469.429
469.724
467.392
462.494
459.839
462.504
462.638
460.128
454.875
457.438
459.938
459.938
457.345
452.102
462.659
465.379
465.547
463.035
457.719
449.406
451.632
451.472
448.872
443.817
441.391
443.428
443.2
440.673
435.854
451.461
453.737
453.596
450.979
445.868
441.914
446.863
449.373
449.474
447.227
441.965
467.923
467.652
472.902
473.06
467.276
466.575
472.557
471.911
462.198
456.064
462.177
456.777
461.603
461.787
457.832
468.361
467.994
473.304
473.561
467.486
466.666
472.801
471.936
462.275
456.029
462.196
456.739
461.529
461.731
457.677
468.515
468.028
473.427
473.814
467.342
466.335
472.714
471.64
462.275
454.68
462.077
455.45
461.203
461.289
456.423
466.885
466.304
471.705
472.196
465.41
464.071
470.822
469.464
460.296
452.13
460.046
452.844
459.016
458.964
453.893
463.525
462.896
468.148
468.691
461.864
460.221
467.175
465.679
456.927
449.162
456.631
449.656
455.549
455.201
450.615
457.375
456.747
461.716
462.272
455.758
454.256
460.722
459.261
451.364
444.574
451.108
444.968
450.112
449.815
445.867
480.176
480.157
477.111
477.184
479.936
479.584
476.845
476.317
481.906
482.821
481.799
482.708
481.643
481.251
482.283
480.666
480.532
477.519
477.698
480.141
479.605
477.081
476.397
482.479
482.976
482.224
482.701
481.803
481.218
482.126
480.877
480.59
477.643
477.961
479.976
479.224
476.981
476.032
482.295
481.714
481.894
481.443
481.175
480.486
480.868
479.102
478.696
475.862
476.291
477.884
476.836
475.024
473.86
480.09
478.571
479.577
478.284
478.586
477.684
477.723
475.34
474.869
472.172
472.658
473.881
472.543
471.249
469.932
475.946
474.018
475.367
473.765
474.255
473.175
473.311
468.52
468.034
465.522
466.024
467.053
465.833
464.571
463.265
469.136
467.945
468.594
467.639
467.622
466.7
467.168
424.813
426.007
428.245
430.166
432.238
434.315
436.696
438.562
434.462
436.633
430.889
432.963
427.867
429.697
425.11
426.417
434.73
437.878
438.234
442.511
440.416
444.314
443.925
448.946
422.354
417.903
423.534
419.219
425.759
421.357
427.734
423.36
433.288
429.59
437.063
432.298
425.459
429.029
442.331
448.753
446.776
451.653
447.899
453.735
453.054
457.532
437.197
443.538
441.287
446.205
432.668
438.692
412.729
408.963
414.666
410.573
416.113
411.352
418.678
414.052
420.92
414.602
425.689
419.335
429.784
423.258
435.006
428.11
438.483
440.113
443.951
445.175
446.246
447.933
451.181
452.845
436.799
436.984
431.006
431.996
448.719
449.409
453.14
452.954
455.622
456.959
459.792
460.437
441.778
441.189
446.408
444.68
429.621
422.094
428.724
420.879
423.966
416.758
423.924
416.157
434.582
426.865
432.786
424.803
439.283
431.352
436.137
428.055
404.772
397.832
403.531
396.992
407.778
400.958
405.423
398.985
412.415
406.778
408.431
402.94
431.508
440.068
423.587
417.776
411.019
437.778
428.746
419.144
413.178
406.508
441.922
433.864
426.143
418.806
411.306
391.531
387.374
389.414
385.905
394.917
390.13
391.78
387.96
400.883
395.338
395.917
391.354
434.241
428.314
424.569
417.503
415.542
408.704
408.799
402.409
400.402
394.678
439.163
434.174
430.181
423.135
421.977
414.503
413.974
406.429
404.14
396.898
436.886
429.155
442.658
435.559
446.029
441.919
451.636
448.208
433.317
425.121
427.905
419.302
447.538
440.41
450.95
444.018
456.165
452.744
459.548
456.345
438.159
429.798
441.464
433.216
422.939
414.215
410.667
401.335
418.532
409.357
407.483
398.245
426.874
418.382
413.539
404.354
430.522
421.817
417.042
408.191
384.124
380.587
376.558
384.246
381.191
377.288
386.269
382.313
378.011
385.95
382.629
378.408
390.472
385.837
381.031
388.51
384.539
379.796
421.15
413.442
405.669
409.639
402.75
395.958
401.517
395.243
389.182
396.15
390.431
384.69
390.723
385.882
380.345
427.103
418.029
408.912
413.338
404.357
395.878
404.638
396.364
388.729
397.843
390.62
383.704
391.161
385.341
379.011
450.39
453.784
453.405
457.859
445.902
449.886
449.196
454.256
447.954
452.091
448.795
452.52
450.557
454.117
452.061
455.245
457.159
454.208
459.69
456.043
456.273
458.727
461.293
465.253
458.146
462.304
459.343
463.529
462.606
466.277
460.368
464.364
456.579
460.494
455.711
458.934
458.193
461.918
458.155
461.171
460.1
463.818
462.11
464.956
463.655
465.589
466.979
467.916
457.294
459.89
461.504
464.203
452.617
454.757
457.157
459.375
464.239
467.45
460.382
463.552
465.394
467.843
469.157
470.967
461.314
463.267
465.265
466.598
467.799
470.765
471.362
473.626
466.356
468.248
469.119
469.341
463.177
465.719
465.684
466.482
469.349
470.513
472.074
471.78
472.539
472.922
474.622
473.872
454.931
451.529
459.588
456.366
455.781
452.18
460.328
456.972
457.042
453.821
461.486
458.499
453.378
447.587
456.819
459.888
462.834
445.345
450.927
453.639
456.679
460.183
449.555
455.374
459.578
462.217
463.638
446.562
440.176
451.382
445.117
447.57
441.36
452.478
446.462
449.621
443.591
454.55
448.897
442.317
436.915
448.295
442.672
451.377
445.693
454.103
448.361
457.527
452.099
447.403
443.585
453.349
449.428
457.422
453.1
459.796
454.82
461.036
455.433
459.427
456.682
463.789
461.781
454.024
451.416
458.892
457.144
466.578
463.657
462.698
459.13
467.192
465.692
470.202
468.886
462.703
461.402
465.944
464.879
469.737
467.275
472.499
470.186
467.644
463.653
466.803
461.806
464.187
459.559
464.148
458.701
470.482
467.025
469.077
464.533
472.91
469.559
471.218
467.104
431.84
423.779
416.349
434.834
425.632
418.081
433.423
425.184
417.521
436.543
427.218
419.269
435.989
427.758
419.836
439.318
429.42
420.837
430.051
422.094
413.877
435.6
427.273
418.727
438.516
429.772
420.999
440.782
431.912
423.21
442.315
431.752
422.293
437.406
428.235
418.558
442.988
433.503
423.527
445.998
435.978
425.632
446.79
436.353
425.928
445.078
433.839
423.354
460.752
455.545
445.626
430.083
458.818
453.4
443.356
427.935
461.694
456.227
446.194
430.455
460.504
454.685
444.421
428.8
462.893
457.046
447.27
431.85
463.4
457.05
446.725
430.986
463.074
456.169
445.242
429.331
464.328
456.715
445.345
429.362
465.631
458.735
448.377
432.587
465.3
457.865
448.15
433.765
463.75
457.424
448.018
433.363
463.241
456.425
447.414
433.889
467.164
459.698
448.549
432.148
467.086
459.112
448.796
433.958
468.728
460.686
449.125
432.733
468.647
460.193
449.528
434.635
460.407
455.597
446.405
431.603
457.763
453.468
445.493
432.429
460.719
455.712
446.596
431.883
457.937
453.436
445.485
432.555
461.155
455.802
446.886
432.539
458.598
453.665
445.645
432.828
461.367
455.563
446.96
433.343
459.224
453.825
445.833
433.293
461.181
454.944
446.627
433.987
453.767
449.933
442.658
432.737
449.318
445.805
438.409
428.89
454.307
450.2
442.845
432.933
449.867
446.047
438.532
428.965
455.317
450.708
443.142
433.143
450.853
446.504
438.768
429.16
456.758
451.471
443.675
433.57
452.177
447.162
439.144
429.42
458.569
452.461
444.317
434.017
453.692
447.911
439.548
429.665
461.918
454.361
445.254
434.468
457.425
450.058
440.86
430.514
460.288
453.406
444.762
434.213
455.587
448.981
440.199
430.098
463.369
455.241
445.713
434.729
459.102
451.068
441.473
430.99
464.763
456.146
446.319
435.21
460.635
452.046
442.109
431.477
409.366
393.803
381.402
371.917
365.031
408.172
392.923
380.66
371.262
364.437
409.54
393.889
381.452
371.951
365.058
408.457
393.1
380.784
371.357
364.518
409.831
394.017
381.527
372.004
365.102
409.351
393.775
381.337
371.832
364.943
408.92
393.373
380.959
371.48
364.615
409.26
393.599
381.111
371.587
364.699
410.047
394.134
381.597
372.05
365.136
409.06
392.923
380.478
371.041
364.215
409.79
393.817
381.317
371.807
364.919
408.724
392.623
380.229
370.83
364.027
410.108
394.163
381.597
372.033
365.112
408.985
392.813
380.357
370.919
364.098
410.461
394.383
381.742
372.135
365.192
409.104
392.833
380.335
370.879
364.051
409.217
393.426
381.035
371.588
364.733
407.787
391.956
379.725
370.424
363.678
409.255
393.401
380.994
371.543
364.689
407.814
391.943
379.701
370.396
363.651
409.252
393.294
380.871
371.423
364.576
407.82
391.889
379.634
370.327
363.584
408.848
392.78
380.388
370.982
364.173
407.612
391.654
379.407
370.116
363.389
408.015
392
379.693
370.361
363.604
378.534
376.801
379.674
377.885
381.731
379.686
384.461
381.932
387.436
384.31
392.579
389.122
390.095
386.628
394.852
391.596
397.056
394.125
364.219
350.162
339.44
331.703
326.597
364.263
350.158
339.345
331.59
326.428
364.741
350.412
339.573
331.781
326.651
364.755
350.371
339.471
331.631
326.465
365.741
350.908
339.84
331.938
326.76
365.72
350.848
339.727
331.782
326.569
367.12
351.617
340.23
332.17
326.921
366.984
351.497
340.081
331.992
326.713
368.766
352.51
340.734
332.473
327.131
368.384
352.256
340.511
332.251
326.895
372.278
354.63
342.019
333.288
327.722