/*--------------------------------*- C++ -*----------------------------------*\
  =========                 |
  \\      /  F ield         | OpenFOAM: The Open Source CFD Toolbox
   \\    /   O peration     | Website:  https://openfoam.org
    \\  /    A nd           | Version:  13
     \\/     M anipulation  |
\*---------------------------------------------------------------------------*/
FoamFile
{
    format      ascii;
    class       volScalarField;
    location    "229.831886";
    object      T;
}
// * * * * * * * * * * * * * * * * * * * * * * * * * * * * * * * * * * * * * //

dimensions      [0 0 0 1 0 0 0];

internalField   nonuniform List<scalar> 
5712
(
1146.77
1146.67
1146.52
1146.38
1146.15
1146.01
1145.63
1145.52
1145.73
1145.6
1146.14
1146
1146.43
1146.31
1146.65
1146.56
1146.04
1145.86
1145.8
1145.54
1145.41
1145.18
1145.19
1144.89
1147.09
1147.63
1146.99
1147.5
1146.86
1147.38
1146.71
1147.19
1146.34
1146.62
1146.08
1146.44
1147.06
1146.76
1145.49
1145.04
1145.25
1144.91
1144.92
1144.54
1144.63
1144.34
1146.03
1145.56
1145.76
1145.41
1146.46
1146.01
1148.24
1148.61
1147.99
1148.36
1147.99
1148.44
1147.69
1148.11
1147.61
1148.23
1147.15
1147.73
1146.8
1147.36
1146.4
1146.97
1145.91
1145.83
1145.52
1145.48
1145.07
1144.97
1144.77
1144.66
1146.24
1146.35
1146.7
1146.72
1145.19
1145.19
1144.89
1144.95
1144.49
1144.4
1144.22
1144.18
1145.87
1146.05
1145.53
1145.8
1146.95
1147.64
1147.22
1148
1147.45
1148.16
1147.61
1148.41
1146.54
1147.21
1146.9
1147.66
1146.18
1146.84
1146.65
1147.4
1149.11
1149.91
1149.24
1150.03
1148.87
1149.61
1149.11
1149.87
1148.47
1149.04
1148.89
1149.51
1146.46
1145.47
1147.35
1148.03
1148.75
1145.61
1146.65
1147.72
1148.44
1149.22
1145.36
1146.29
1147.19
1148.03
1148.86
1150.64
1151
1151.05
1151.37
1150.27
1150.68
1150.8
1151.14
1149.62
1150.09
1150.37
1150.78
1145.84
1146.21
1146.98
1147.48
1148.02
1148.55
1148.86
1149.38
1149.96
1150.49
1145.53
1145.83
1146.57
1147.1
1147.54
1148.15
1148.51
1149.16
1149.73
1150.42
1146.09
1146.68
1145.66
1146.19
1145.07
1145.24
1144.68
1144.78
1146.69
1147.4
1147.11
1147.86
1145.29
1145.82
1145.06
1145.56
1144.38
1144.46
1144.15
1144.22
1146.31
1147.03
1146.07
1146.77
1147.87
1148.72
1149.32
1150.35
1148.2
1149.1
1149.54
1150.56
1147.55
1148.38
1149.1
1150.12
1147.26
1148.09
1148.79
1149.76
1151.11
1151.26
1151.55
1151.18
1151.24
1151.5
1150.87
1151.06
1151.37
1151
1151.07
1151.36
1150.38
1150.63
1150.98
1150.73
1150.84
1151.16
1146.67
1147.19
1147.75
1148.03
1148.48
1148.97
1149.05
1149.44
1149.87
1149.79
1150.12
1150.53
1150.51
1150.67
1151.05
1146.25
1146.84
1147.47
1147.8
1148.41
1149.04
1148.86
1149.4
1149.96
1149.71
1150.12
1150.61
1150.5
1150.71
1151.15
1144.29
1144.1
1144.13
1143.88
1144.8
1144.56
1144.61
1144.32
1144.19
1143.79
1144.14
1143.77
1144.07
1143.72
1143.99
1143.66
1143.73
1143.89
1143.63
1143.81
1143.65
1143.52
1143.69
1143.47
1144.09
1143.84
1143.62
1143.41
1143.47
1143.27
1143.44
1143.24
1143.39
1143.04
1143.46
1143.13
1143.35
1142.98
1143.36
1143.03
1143.3
1142.91
1143.21
1142.85
1143.14
1142.83
1142.97
1142.71
1143.85
1143.69
1143.63
1143.45
1144.38
1144.24
1144.13
1143.97
1143.29
1143.07
1143.48
1143.28
1143.42
1143.24
1143.21
1143.06
1143.89
1143.74
1143.65
1143.54
1143.1
1142.89
1142.91
1142.73
1143
1142.69
1142.82
1142.63
1143.15
1142.82
1143
1142.78
1142.85
1142.57
1142.66
1142.5
1142.68
1142.45
1142.52
1142.38
1143.41
1143.57
1143.08
1143.26
1143.4
1143.58
1143.06
1143.24
1143.4
1143.56
1143.02
1143.18
1144.01
1144.64
1143.61
1143.3
1142.97
1144.76
1144.14
1143.77
1143.47
1143.12
1144.52
1143.91
1143.47
1143.17
1142.93
1143.87
1144.27
1143.55
1143.94
1143.85
1144.23
1143.51
1143.88
1143.79
1144.15
1143.42
1143.77
1144.93
1145.24
1144.27
1144.58
1143.89
1144.22
1143.6
1143.94
1143.27
1143.61
1144.62
1144.8
1144
1144.18
1143.57
1143.79
1143.3
1143.57
1143.09
1143.42
1143.65
1143.71
1143.4
1143.4
1144.22
1144.26
1143.93
1143.88
1143.07
1143.15
1143.28
1143.41
1143.22
1143.16
1143.04
1142.96
1143.7
1143.6
1143.5
1143.38
1142.9
1142.93
1142.74
1142.76
1142.86
1143.03
1142.76
1143.03
1143.05
1143.27
1142.91
1143.22
1142.7
1142.83
1142.63
1142.87
1142.57
1142.68
1142.52
1142.72
1144.82
1145.36
1145.88
1144.62
1145.24
1145.75
1144.75
1145.3
1145.82
1144.53
1145.15
1145.69
1144.64
1145.18
1145.71
1144.39
1145.04
1145.61
1145.66
1146.18
1146.74
1145.01
1145.56
1146.13
1144.65
1145.22
1145.81
1144.4
1144.97
1145.54
1144.23
1144.91
1145.54
1145.14
1145.7
1146.34
1144.53
1145.11
1145.75
1144.19
1144.81
1145.47
1144.04
1144.69
1145.36
1144.07
1144.79
1145.48
1142.89
1143.12
1143.74
1144.87
1143
1143.24
1143.88
1145.02
1142.85
1143.09
1143.71
1144.85
1142.92
1143.18
1143.82
1144.97
1142.79
1143.04
1143.64
1144.75
1142.77
1143.05
1143.68
1144.82
1142.79
1143.1
1143.78
1144.94
1142.72
1143.08
1143.78
1144.95
1142.65
1142.96
1143.58
1144.7
1142.67
1143
1143.56
1144.58
1142.75
1143.02
1143.58
1144.63
1142.78
1143.08
1143.6
1144.55
1142.58
1142.91
1143.58
1144.74
1142.58
1142.93
1143.53
1144.57
1142.49
1142.86
1143.55
1144.71
1142.5
1142.88
1143.49
1144.53
1142.91
1143.12
1143.68
1144.74
1143.06
1143.23
1143.71
1144.64
1142.9
1143.11
1143.66
1144.72
1143.05
1143.23
1143.7
1144.63
1142.88
1143.11
1143.64
1144.67
1143.02
1143.22
1143.69
1144.61
1142.88
1143.12
1143.63
1144.6
1142.99
1143.21
1143.68
1144.57
1142.89
1143.15
1143.64
1144.53
1143.28
1143.42
1143.85
1144.52
1143.53
1143.65
1144.09
1144.72
1143.25
1143.41
1143.84
1144.5
1143.5
1143.64
1144.08
1144.71
1143.2
1143.38
1143.82
1144.49
1143.45
1143.62
1144.07
1144.7
1143.13
1143.34
1143.79
1144.47
1143.38
1143.58
1144.05
1144.68
1143.03
1143.29
1143.76
1144.44
1143.3
1143.54
1144.03
1144.67
1142.85
1143.19
1143.71
1144.41
1143.1
1143.42
1143.95
1144.62
1142.94
1143.24
1143.73
1144.43
1143.2
1143.48
1143.99
1144.64
1142.77
1143.14
1143.68
1144.4
1143
1143.36
1143.92
1144.59
1142.7
1143.09
1143.65
1144.38
1142.91
1143.31
1143.88
1144.56
1146.6
1148
1149.19
1150.16
1150.91
1146.69
1148.07
1149.26
1150.22
1150.97
1146.59
1147.99
1149.19
1150.16
1150.9
1146.68
1148.06
1149.25
1150.22
1150.97
1146.57
1147.99
1149.18
1150.15
1150.9
1146.61
1148.01
1149.2
1150.17
1150.92
1146.65
1148.04
1149.24
1150.21
1150.96
1146.63
1148.03
1149.23
1150.2
1150.95
1146.56
1147.98
1149.18
1150.15
1150.9
1146.63
1148.08
1149.28
1150.25
1151
1146.58
1148
1149.2
1150.17
1150.92
1146.66
1148.11
1149.31
1150.28
1151.02
1146.56
1147.98
1149.18
1150.15
1150.9
1146.64
1148.09
1149.3
1150.27
1151.02
1146.54
1147.96
1149.17
1150.14
1150.89
1146.64
1148.1
1149.3
1150.28
1151.02
1146.61
1148.03
1149.23
1150.19
1150.94
1146.72
1148.16
1149.35
1150.32
1151.06
1146.61
1148.03
1149.23
1150.2
1150.95
1146.72
1148.16
1149.35
1150.32
1151.06
1146.61
1148.05
1149.24
1150.21
1150.96
1146.72
1148.16
1149.36
1150.33
1151.07
1146.65
1148.09
1149.29
1150.26
1151.01
1146.73
1148.18
1149.38
1150.35
1151.1
1146.71
1148.16
1149.36
1150.33
1151.07
1152.74
1152.97
1152.64
1152.87
1152.45
1152.71
1152.21
1152.52
1151.98
1152.33
1151.61
1152.01
1151.8
1152.2
1151.42
1151.81
1151.23
1151.58
1155.26
1158.01
1160.33
1162.13
1163.36
1155.22
1157.99
1160.33
1162.15
1163.4
1155.21
1157.99
1160.31
1162.12
1163.35
1155.18
1157.97
1160.32
1162.14
1163.39
1155.12
1157.94
1160.28
1162.09
1163.33
1155.09
1157.92
1160.29
1162.12
1163.37
1154.99
1157.86
1160.23
1162.06
1163.3
1154.97
1157.86
1160.24
1162.08
1163.34
1154.85
1157.77
1160.16
1162.01
1163.26
1154.85
1157.78
1160.18
1162.04
1163.31
1154.53
1157.54
1159.99
1161.87
1163.13
1154.57
1157.57
1160.03
1161.92
1163.19
1154.69
1157.66
1160.08
1161.94
1163.2
1154.72
1157.68
1160.12
1161.99
1163.26
1154.38
1157.41
1159.89
1161.79
1163.06
1154.4
1157.44
1159.93
1161.83
1163.11
1154.21
1157.29
1159.79
1161.71
1162.99
1154.21
1157.3
1159.81
1161.74
1163.03
1143.73
1144.09
1144.4
1143.98
1144.51
1144.45
1144.44
1144.36
1144.56
1144.45
1145.04
1144.92
1145.29
1145.15
1144.92
1144.81
1144.78
1144.71
1144.75
1144.69
1144
1143.9
1144.95
1145.37
1145.51
1145.54
1145.16
1145
1145.49
1144.9
1145.91
1146.54
1145.01
1145.19
1145.69
1145.14
1145.36
1145.4
1144.59
1144.54
1144.81
1144.71
1144.59
1144.48
1144.6
1144.75
1145.3
1145.2
1145
1144.89
1144.17
1144.03
1144.27
1144.15
1144.31
1144.35
1144.63
1145
1144.63
1143.35
1143.02
1142.88
1142.89
1143.07
1143.42
1143.15
1143.03
1143.07
1143.3
1144.63
1144.48
1144.47
1144.59
1144.87
1145.06
1144.93
1144.92
1145.06
1145.34
1145.19
1145.05
1145.04
1145.18
1145.45
1145.24
1145.1
1145.1
1145.24
1145.52
1144.84
1144.7
1144.69
1144.82
1145.09
1144.29
1143.86
1143.63
1143.58
1143.71
1144.73
1144.27
1144.03
1143.98
1144.13
1144.4
1144.08
1143.91
1143.92
1144.13
1145.21
1144.77
1144.55
1144.52
1144.7
1145.86
1145.41
1145.19
1145.16
1145.34
1144.61
1144.38
1144.29
1144.36
1144.6
1144.73
1144.44
1144.3
1144.33
1144.55
1145.24
1144.96
1144.82
1144.86
1145.09
1144.77
1144.57
1144.5
1144.59
1144.84
1144.97
1144.74
1144.65
1144.72
1144.97
1145.04
1144.84
1144.78
1144.87
1145.12
1143.94
1143.57
1143.39
1143.37
1143.52
1144.1
1143.83
1143.7
1143.74
1143.97
1144.43
1144.22
1144.15
1144.23
1144.48
1144.35
1144.16
1144.1
1144.2
1144.46
1144.2
1143.98
1143.9
1143.97
1144.22
1144.12
1143.92
1143.86
1143.95
1144.21
1144.26
1144.09
1144.05
1144.16
1144.43
1144.42
1144.25
1144.21
1144.33
1144.6
1144.97
1144.8
1144.77
1144.88
1145.15
1144.87
1144.72
1144.7
1144.82
1145.09
1144.65
1144.46
1144.41
1144.51
1144.78
1144.55
1144.38
1144.34
1144.45
1144.72
1143.54
1143.2
1143.05
1143.05
1143.22
1143.58
1143.32
1143.21
1143.26
1143.49
1143.75
1143.45
1143.3
1143.31
1143.51
1143.75
1143.53
1143.44
1143.51
1143.76
1143.93
1143.73
1143.65
1143.74
1143.99
1143.92
1143.66
1143.54
1143.59
1143.82
1144.29
1144.12
1144.08
1144.19
1144.45
1144.67
1144.52
1144.49
1144.62
1144.89
1144.27
1144.09
1144.04
1144.14
1144.4
1143.97
1144.17
1143.99
1144.2
1143.5
1143.72
1143.49
1143.69
1144
1144.03
1144.21
1144.17
1143.5
1143.51
1143.71
1143.65
1144.47
1144.96
1144.65
1145.12
1144.48
1144.92
1144.68
1145.12
1144.69
1144.51
1144.59
1144.47
1144.85
1145.03
1144.47
1144.69
1144.37
1144.61
1143.98
1144.21
1143.85
1144.07
1144.94
1145.17
1144.79
1145.06
1145.29
1145.58
1145.41
1145.8
1145.54
1145.91
1145.38
1145.84
1145.55
1145.96
1145.3
1145.93
1145.42
1145.97
1145.66
1146.22
1145.98
1146.56
1144.18
1144.31
1144.28
1144.43
1143.56
1143.6
1143.66
1143.7
1144.88
1145.24
1144.79
1145.12
1144.44
1144.57
1144.65
1144.74
1143.82
1143.83
1144.01
1143.99
1145.04
1145.39
1145.26
1145.58
1145.49
1146.19
1146.08
1146.87
1145.44
1146.18
1145.98
1146.81
1145.65
1146.31
1146.22
1146.99
1145.89
1146.54
1146.42
1147.17
1145.45
1145.68
1145.88
1146.24
1145.41
1145.6
1145.94
1146.29
1145.34
1145.45
1146.06
1146.35
1144.16
1143.51
1144.79
1145.47
1146.33
1143.49
1144.11
1144.74
1145.45
1146.48
1143.54
1144.24
1145.04
1145.91
1146.81
1146.05
1146.21
1147.19
1147.53
1145.87
1146.04
1147.13
1147.46
1145.62
1145.75
1147.04
1147.38
1143.5
1143.59
1144.16
1144.27
1144.84
1144.95
1145.67
1145.81
1147.15
1147.51
1143.55
1143.64
1144.31
1144.53
1145.18
1145.47
1146.19
1146.53
1147.55
1147.98
1144.49
1144.88
1144.59
1144.99
1143.62
1143.65
1143.71
1143.71
1145.58
1146.15
1145.45
1145.99
1144.68
1145.14
1144.86
1145.34
1143.81
1143.85
1143.97
1144.02
1145.67
1146.31
1145.86
1146.54
1146.75
1147.49
1148.24
1149.18
1146.55
1147.27
1147.97
1148.85
1146.9
1147.67
1148.47
1149.44
1147.04
1147.86
1148.59
1149.54
1146.27
1146.41
1147.3
1147.32
1146.11
1146.26
1147.26
1147.26
1145.86
1146.08
1147.21
1147.23
1143.77
1144.1
1144.47
1144.77
1145.13
1145.39
1145.95
1146.2
1147.29
1147.28
1143.82
1144.17
1144.84
1145.16
1145.73
1145.97
1146.63
1146.73
1147.56
1147.48
1142.7
1142.69
1142.91
1142.82
1143.06
1143.05
1143.27
1143.18
1142.45
1142.28
1142.65
1142.46
1142.46
1142.29
1142.67
1142.49
1142.63
1142.46
1142.61
1142.48
1142.33
1142.5
1143.01
1143.23
1143.37
1143.59
1142.88
1143.14
1142.8
1143.03
1142.74
1142.97
1142.17
1142.09
1142.35
1142.26
1142.17
1142.08
1142.36
1142.25
1142.18
1142.06
1142.33
1142.18
1142.54
1142.37
1142.75
1142.54
1142.63
1142.61
1142.72
1142.68
1143.03
1143.02
1143.13
1143.11
1142.45
1142.39
1142.36
1142.34
1142.86
1142.78
1143.03
1142.91
1143.28
1143.22
1143.45
1143.36
1142.58
1142.48
1142.74
1142.59
1142.25
1142.11
1142.22
1142.15
1142.17
1142.06
1142.18
1142.12
1142.38
1142.21
1142.3
1142.21
1142.52
1142.32
1142.4
1142.28
1142.09
1142.12
1142.03
1142.08
1142.1
1142.14
1142.03
1142.09
1142.14
1142.17
1142.04
1142.09
1142.59
1142.99
1142.33
1142.16
1142.07
1142.99
1142.61
1142.36
1142.19
1142.11
1142.98
1142.59
1142.32
1142.17
1142.12
1142.25
1142.47
1142.23
1142.48
1142.25
1142.46
1142.22
1142.45
1142.25
1142.44
1142.21
1142.42
1142.99
1143.08
1142.61
1142.72
1142.38
1142.52
1142.23
1142.39
1142.19
1142.39
1142.95
1142.99
1142.57
1142.62
1142.33
1142.42
1142.21
1142.35
1142.2
1142.39
1142.56
1142.54
1142.63
1142.57
1142.96
1142.9
1143.05
1142.95
1142.39
1142.41
1142.32
1142.37
1142.76
1142.67
1142.88
1142.8
1143.19
1143.05
1143.33
1143.2
1142.49
1142.49
1142.6
1142.61
1142.26
1142.37
1142.27
1142.46
1142.21
1142.35
1142.22
1142.42
1142.34
1142.44
1142.34
1142.53
1142.45
1142.55
1142.42
1142.61
1142.75
1143
1142.83
1143.13
1142.71
1142.99
1142.8
1143.12
1142.68
1142.99
1142.76
1143.13
1143.26
1143.59
1142.92
1143.26
1142.73
1143.08
1142.63
1142.99
1142.73
1143.16
1143.13
1143.52
1142.79
1143.19
1142.64
1143.06
1142.63
1143.06
1142.77
1143.26
1142.24
1142.68
1143.44
1144.67
1142.39
1142.84
1143.6
1144.84
1142.23
1142.67
1143.42
1144.66
1142.38
1142.81
1143.57
1144.8
1142.22
1142.66
1143.37
1144.58
1142.31
1142.74
1143.47
1144.68
1142.48
1142.9
1143.64
1144.85
1142.61
1143
1143.73
1144.92
1142.26
1142.69
1143.39
1144.57
1142.34
1142.77
1143.4
1144.46
1142.24
1142.67
1143.34
1144.46
1142.32
1142.76
1143.38
1144.4
1142.32
1142.74
1143.46
1144.66
1142.37
1142.79
1143.43
1144.49
1142.41
1142.8
1143.51
1144.68
1142.43
1142.83
1143.46
1144.5
1142.19
1142.63
1143.34
1144.52
1142.26
1142.7
1143.34
1144.39
1142.19
1142.64
1143.34
1144.51
1142.27
1142.71
1143.35
1144.39
1142.22
1142.66
1143.34
1144.47
1142.29
1142.73
1143.37
1144.38
1142.27
1142.71
1143.35
1144.41
1142.32
1142.76
1143.38
1144.37
1142.33
1142.78
1143.38
1144.35
1142.42
1142.86
1143.47
1144.23
1142.64
1143.08
1143.7
1144.41
1142.42
1142.86
1143.47
1144.23
1142.64
1143.09
1143.7
1144.41
1142.43
1142.87
1143.48
1144.23
1142.65
1143.09
1143.71
1144.42
1142.43
1142.88
1143.48
1144.23
1142.65
1143.1
1143.72
1144.42
1142.44
1142.89
1143.48
1144.23
1142.66
1143.12
1143.73
1144.43
1142.51
1142.95
1143.54
1144.28
1142.71
1143.16
1143.77
1144.47
1142.47
1142.92
1143.51
1144.25
1142.68
1143.13
1143.75
1144.45
1142.56
1143
1143.58
1144.32
1142.77
1143.21
1143.81
1144.5
1142.63
1143.04
1143.62
1144.35
1142.84
1143.26
1143.85
1144.53
1146.48
1147.93
1149.14
1150.13
1150.88
1146.58
1148
1149.21
1150.2
1150.95
1146.48
1147.93
1149.14
1150.13
1150.88
1146.58
1148
1149.21
1150.19
1150.94
1146.48
1147.93
1149.14
1150.13
1150.88
1146.53
1147.96
1149.17
1150.15
1150.9
1146.59
1148.01
1149.21
1150.19
1150.94
1146.61
1148.01
1149.22
1150.19
1150.94
1146.49
1147.93
1149.15
1150.13
1150.88
1146.57
1148.04
1149.26
1150.24
1150.99
1146.49
1147.95
1149.17
1150.15
1150.9
1146.58
1148.06
1149.28
1150.26
1151.01
1146.51
1147.95
1149.16
1150.14
1150.89
1146.6
1148.07
1149.28
1150.26
1151.01
1146.52
1147.95
1149.16
1150.14
1150.89
1146.62
1148.09
1149.29
1150.27
1151.02
1146.49
1147.96
1149.18
1150.16
1150.92
1146.59
1148.08
1149.3
1150.28
1151.04
1146.49
1147.96
1149.18
1150.17
1150.92
1146.59
1148.08
1149.31
1150.29
1151.04
1146.51
1147.98
1149.2
1150.18
1150.94
1146.6
1148.1
1149.32
1150.3
1151.05
1146.55
1148.03
1149.25
1150.24
1150.99
1146.63
1148.12
1149.34
1150.33
1151.08
1146.62
1148.1
1149.32
1150.3
1151.05
1149.62
1149.88
1149.65
1149.92
1149.74
1150.01
1149.87
1150.14
1150.09
1150.32
1150.63
1150.94
1150.39
1150.65
1150.85
1151.18
1151.04
1151.38
1152.98
1156.39
1159.12
1161.17
1162.52
1152.91
1156.35
1159.11
1161.18
1162.56
1153.02
1156.41
1159.13
1161.18
1162.53
1152.95
1156.38
1159.13
1161.2
1162.57
1153.09
1156.46
1159.17
1161.21
1162.56
1153.02
1156.43
1159.16
1161.23
1162.59
1153.19
1156.53
1159.22
1161.25
1162.59
1153.12
1156.49
1159.21
1161.26
1162.62
1153.34
1156.63
1159.29
1161.31
1162.64
1153.24
1156.58
1159.27
1161.31
1162.66
1153.71
1156.89
1159.48
1161.45
1162.77
1153.64
1156.85
1159.47
1161.46
1162.79
1153.52
1156.75
1159.38
1161.38
1162.7
1153.42
1156.7
1159.36
1161.38
1162.72
1153.88
1157.02
1159.58
1161.54
1162.84
1153.84
1157
1159.58
1161.55
1162.87
1154.05
1157.16
1159.69
1161.62
1162.92
1154.03
1157.15
1159.7
1161.65
1162.95
1143.44
1143.78
1143.54
1143.18
1142.71
1142.91
1142.71
1142.93
1143.06
1143.29
1143.06
1143.26
1146.93
1146.87
1146.71
1146.47
1146.15
1145.76
1146.95
1146.89
1146.75
1146.52
1146.23
1145.88
1147.08
1147.31
1147.01
1147.23
1146.84
1147.04
1146.57
1146.73
1146.2
1146.32
1145.78
1145.91
1145.34
1144.94
1144.6
1144.32
1144.11
1143.95
1145.51
1145.14
1144.82
1144.55
1144.34
1144.19
1146.64
1146.53
1146.55
1146.7
1146.99
1146.58
1146.47
1146.49
1146.64
1146.92
1146.43
1146.31
1146.33
1146.48
1146.77
1146.18
1146.07
1146.08
1146.23
1146.52
1145.85
1145.73
1145.74
1145.89
1146.18
1145.46
1145.33
1145.34
1145.48
1145.76
1146.67
1146.55
1146.57
1146.72
1147.01
1146.61
1146.49
1146.51
1146.66
1146.95
1146.46
1146.35
1146.36
1146.51
1146.8
1146.23
1146.12
1146.13
1146.28
1146.56
1145.93
1145.81
1145.82
1145.97
1146.25
1145.58
1145.45
1145.45
1145.6
1145.88
1146.8
1146.69
1146.7
1146.86
1147.14
1147.03
1146.92
1146.94
1147.09
1147.37
1146.73
1146.62
1146.63
1146.79
1147.07
1146.95
1146.84
1146.86
1147.01
1147.29
1146.56
1146.44
1146.46
1146.61
1146.9
1146.76
1146.64
1146.66
1146.81
1147.1
1146.28
1146.16
1146.18
1146.33
1146.61
1146.44
1146.32
1146.34
1146.49
1146.77
1145.91
1145.79
1145.8
1145.95
1146.23
1146.03
1145.91
1145.92
1146.07
1146.35
1145.48
1145.35
1145.36
1145.5
1145.78
1145.61
1145.48
1145.48
1145.63
1145.91
1145.03
1144.89
1144.89
1145.03
1145.31
1144.62
1144.47
1144.45
1144.58
1144.86
1144.26
1144.09
1144.06
1144.18
1144.45
1143.96
1143.77
1143.71
1143.81
1144.07
1143.72
1143.51
1143.43
1143.52
1143.77
1143.55
1143.32
1143.24
1143.31
1143.56
1145.2
1145.06
1145.06
1145.2
1145.48
1144.83
1144.68
1144.67
1144.79
1145.07
1144.49
1144.33
1144.3
1144.42
1144.69
1144.2
1144.02
1143.98
1144.09
1144.36
1143.98
1143.78
1143.73
1143.83
1144.09
1143.82
1143.62
1143.56
1143.65
1143.92
1146.89
1146.77
1146.56
1146.25
1145.86
1145.4
1146.92
1146.8
1146.59
1146.31
1145.95
1145.54
1147.05
1147.28
1146.91
1147.13
1146.68
1146.87
1146.34
1146.48
1145.9
1146.01
1145.4
1145.5
1144.92
1144.48
1144.14
1143.91
1143.82
1143.85
1145.13
1144.74
1144.43
1144.22
1144.11
1144.11
1146.61
1146.5
1146.52
1146.67
1146.95
1146.49
1146.37
1146.39
1146.54
1146.83
1146.27
1146.15
1146.17
1146.33
1146.61
1145.96
1145.85
1145.86
1146.01
1146.3
1145.57
1145.45
1145.46
1145.61
1145.9
1145.11
1144.98
1144.99
1145.14
1145.43
1146.63
1146.52
1146.54
1146.69
1146.98
1146.51
1146.4
1146.42
1146.57
1146.86
1146.31
1146.19
1146.21
1146.36
1146.65
1146.02
1145.9
1145.92
1146.07
1146.35
1145.66
1145.54
1145.55
1145.7
1145.98
1145.25
1145.12
1145.13
1145.28
1145.56
1146.76
1146.65
1146.67
1146.82
1147.11
1147
1146.88
1146.9
1147.06
1147.34
1146.63
1146.52
1146.54
1146.69
1146.97
1146.85
1146.74
1146.76
1146.91
1147.19
1146.39
1146.28
1146.3
1146.45
1146.74
1146.58
1146.47
1146.49
1146.64
1146.93
1146.05
1145.93
1145.95
1146.1
1146.39
1146.19
1146.08
1146.1
1146.25
1146.53
1145.61
1145.49
1145.51
1145.66
1145.94
1145.72
1145.6
1145.61
1145.76
1146.05
1145.1
1144.98
1144.99
1145.14
1145.43
1145.21
1145.08
1145.09
1145.24
1145.53
1144.62
1144.49
1144.49
1144.63
1144.92
1144.17
1144.03
1144.02
1144.16
1144.44
1143.81
1143.65
1143.63
1143.76
1144.03
1143.56
1143.38
1143.34
1143.45
1143.72
1143.44
1143.24
1143.18
1143.27
1143.53
1143.45
1143.23
1143.15
1143.23
1143.48
1144.82
1144.69
1144.69
1144.84
1145.12
1144.43
1144.29
1144.28
1144.42
1144.7
1144.11
1143.95
1143.93
1144.06
1144.34
1143.88
1143.71
1143.67
1143.79
1144.06
1143.76
1143.57
1143.52
1143.63
1143.9
1143.74
1143.54
1143.49
1143.58
1143.85
1143.82
1143.76
1144.43
1144.92
1144.95
1145.06
1144.61
1143.53
1143.67
1143.58
1143.99
1143.93
1143.87
1144.17
1144.24
1144.42
1143.5
1143.52
1143.87
1143.91
1143.7
1143.76
1144.02
1144.09
1144.53
1144.53
1144.16
1144.16
1143.65
1143.65
1143.49
1143.61
1143.66
1143.52
1143.99
1144.38
1143.9
1143.19
1142.87
1142.74
1142.76
1142.95
1143.29
1143.02
1142.91
1142.96
1143.19
1144.11
1143.98
1143.97
1144.11
1144.39
1144.62
1144.49
1144.49
1144.64
1144.92
1144.64
1144.51
1144.51
1144.66
1144.94
1144.76
1144.63
1144.64
1144.78
1145.07
1144.3
1144.17
1144.17
1144.31
1144.6
1142.97
1142.68
1142.56
1142.6
1142.79
1143.12
1142.85
1142.74
1142.8
1143
1143.17
1142.94
1142.85
1142.93
1143.18
1143.51
1143.26
1143.18
1143.25
1143.49
1143.58
1143.41
1143.37
1143.48
1143.75
1143.49
1143.29
1143.23
1143.32
1143.58
1143.84
1143.68
1143.65
1143.78
1144.05
1143.9
1143.73
1143.7
1143.81
1144.09
1144.1
1143.94
1143.92
1144.04
1144.32
1142.94
1142.66
1142.55
1142.59
1142.79
1143.13
1142.92
1142.85
1142.93
1143.19
1143.53
1143.36
1143.33
1143.44
1143.72
1143.57
1143.41
1143.38
1143.51
1143.78
1143.34
1143.16
1143.12
1143.23
1143.5
1143.41
1143.24
1143.2
1143.32
1143.59
1143.69
1143.54
1143.52
1143.65
1143.93
1143.76
1143.61
1143.6
1143.73
1144.01
1144.21
1144.07
1144.06
1144.19
1144.47
1144.22
1144.08
1144.07
1144.21
1144.5
1143.83
1143.68
1143.66
1143.79
1144.07
1143.84
1143.69
1143.67
1143.8
1144.08
1143.05
1142.76
1142.63
1142.67
1142.86
1143.21
1142.97
1142.88
1142.95
1143.19
1143.01
1142.76
1142.66
1142.71
1142.93
1143.23
1143.03
1142.96
1143.06
1143.32
1143.31
1143.12
1143.08
1143.18
1143.45
1143.12
1142.9
1142.83
1142.91
1143.17
1143.66
1143.5
1143.48
1143.61
1143.89
1144.07
1143.92
1143.92
1144.06
1144.34
1143.56
1143.4
1143.38
1143.5
1143.78
1144.05
1143.78
1143.67
1143.72
1143.9
1144.25
1143.91
1143.93
1143.42
1143.41
1143.95
1143.99
1143.44
1143.46
1144.43
1144.98
1144.43
1144.93
1144.49
1144.46
1144.84
1143.89
1143.92
1143.4
1143.39
1143.94
1143.99
1143.42
1143.45
1144.46
1145.04
1144.46
1144.97
1144.51
1144.47
1144.88
1143.9
1143.93
1143.4
1143.38
1143.96
1144
1143.42
1143.46
1144.49
1145.18
1144.49
1145.1
1144.54
1144.49
1144.98
1144
1144.03
1143.49
1143.47
1144.06
1144.11
1143.51
1143.55
1144.62
1145.36
1144.62
1145.27
1144.66
1144.61
1145.13
1144.18
1144.2
1143.66
1143.65
1144.23
1144.29
1143.69
1143.72
1144.8
1145.49
1144.79
1145.42
1144.83
1144.79
1145.28
1144.49
1144.51
1143.99
1143.97
1144.53
1144.58
1144.01
1144.04
1145.08
1145.71
1145.07
1145.65
1145.09
1145.05
1145.51
1142.64
1142.63
1142.99
1142.99
1142.64
1142.65
1142.99
1143.01
1142.38
1142.19
1142.4
1142.22
1142.4
1142.43
1142.28
1142.61
1142.61
1142.97
1142.96
1142.63
1142.64
1142.98
1142.99
1142.35
1142.19
1142.37
1142.23
1142.39
1142.43
1142.29
1142.6
1142.61
1142.96
1142.95
1142.63
1142.65
1142.98
1143
1142.37
1142.26
1142.39
1142.29
1142.42
1142.47
1142.35
1142.69
1142.7
1143.04
1143.03
1142.73
1142.76
1143.07
1143.09
1142.48
1142.42
1142.5
1142.45
1142.55
1142.6
1142.51
1142.88
1142.89
1143.22
1143.21
1142.92
1142.96
1143.25
1143.27
1142.68
1142.66
1142.71
1142.68
1142.76
1142.82
1142.73
1143.22
1143.23
1143.56
1143.54
1143.26
1143.3
1143.58
1143.6
1143.03
1142.97
1143.06
1142.99
1143.09
1143.14
1143.04
1146.78
1146.7
1146.53
1146.38
1146.15
1146.01
1145.64
1145.52
1145.74
1145.6
1146.14
1146.01
1146.44
1146.31
1146.67
1146.58
1146.04
1145.86
1145.8
1145.55
1145.41
1145.18
1145.19
1144.89
1147.11
1147.64
1147.01
1147.51
1146.87
1147.38
1146.71
1147.2
1146.34
1146.62
1146.08
1146.44
1147.07
1146.76
1145.49
1145.04
1145.25
1144.91
1144.92
1144.54
1144.63
1144.34
1146.03
1145.57
1145.76
1145.41
1146.46
1146.01
1148.25
1148.61
1148
1148.38
1147.99
1148.45
1147.69
1148.11
1147.62
1148.23
1147.16
1147.73
1146.8
1147.37
1146.4
1146.97
1145.91
1145.83
1145.52
1145.48
1145.07
1144.97
1144.77
1144.66
1146.24
1146.35
1146.7
1146.72
1145.19
1145.19
1144.89
1144.95
1144.49
1144.4
1144.22
1144.18
1145.87
1146.05
1145.54
1145.8
1146.95
1147.64
1147.22
1148
1147.45
1148.16
1147.61
1148.41
1146.54
1147.22
1146.9
1147.66
1146.18
1146.84
1146.65
1147.4
1149.12
1149.92
1149.25
1150.04
1148.87
1149.61
1149.11
1149.87
1148.47
1149.04
1148.89
1149.51
1146.46
1145.48
1147.35
1148.03
1148.75
1145.61
1146.65
1147.72
1148.44
1149.22
1145.36
1146.29
1147.19
1148.04
1148.87
1150.65
1151.01
1151.05
1151.37
1150.27
1150.68
1150.8
1151.14
1149.62
1150.09
1150.37
1150.78
1145.84
1146.21
1146.98
1147.48
1148.02
1148.55
1148.86
1149.38
1149.96
1150.49
1145.53
1145.83
1146.57
1147.1
1147.54
1148.15
1148.51
1149.16
1149.73
1150.42
1146.09
1146.69
1145.66
1146.19
1145.07
1145.24
1144.69
1144.78
1146.69
1147.4
1147.11
1147.86
1145.29
1145.82
1145.06
1145.56
1144.38
1144.46
1144.15
1144.22
1146.31
1147.03
1146.07
1146.77
1147.87
1148.72
1149.32
1150.35
1148.2
1149.1
1149.54
1150.56
1147.56
1148.38
1149.1
1150.12
1147.26
1148.09
1148.79
1149.76
1151.12
1151.27
1151.56
1151.19
1151.24
1151.51
1150.87
1151.06
1151.37
1151
1151.07
1151.36
1150.38
1150.63
1150.98
1150.73
1150.84
1151.16
1146.67
1147.19
1147.75
1148.03
1148.48
1148.97
1149.05
1149.44
1149.87
1149.79
1150.12
1150.53
1150.51
1150.68
1151.05
1146.25
1146.84
1147.47
1147.8
1148.42
1149.04
1148.86
1149.4
1149.96
1149.72
1150.12
1150.61
1150.5
1150.72
1151.15
1144.29
1144.1
1144.13
1143.88
1144.8
1144.57
1144.61
1144.32
1144.19
1143.8
1144.15
1143.78
1144.07
1143.72
1143.99
1143.66
1143.73
1143.89
1143.63
1143.81
1143.65
1143.52
1143.69
1143.47
1144.09
1143.84
1143.62
1143.41
1143.47
1143.27
1143.44
1143.24
1143.4
1143.05
1143.47
1143.14
1143.35
1142.98
1143.36
1143.03
1143.3
1142.91
1143.21
1142.85
1143.14
1142.83
1142.97
1142.71
1143.85
1143.69
1143.64
1143.45
1144.38
1144.24
1144.13
1143.97
1143.29
1143.07
1143.48
1143.28
1143.42
1143.24
1143.21
1143.06
1143.89
1143.74
1143.65
1143.54
1143.1
1142.89
1142.91
1142.73
1143
1142.69
1142.82
1142.63
1143.15
1142.82
1143
1142.78
1142.85
1142.57
1142.66
1142.5
1142.68
1142.45
1142.52
1142.38
1143.41
1143.58
1143.08
1143.26
1143.4
1143.58
1143.06
1143.24
1143.4
1143.56
1143.02
1143.18
1144.01
1144.64
1143.61
1143.3
1142.97
1144.76
1144.14
1143.77
1143.47
1143.12
1144.52
1143.91
1143.47
1143.17
1142.93
1143.87
1144.27
1143.55
1143.95
1143.85
1144.23
1143.51
1143.88
1143.79
1144.15
1143.42
1143.77
1144.93
1145.24
1144.27
1144.59
1143.89
1144.22
1143.6
1143.94
1143.27
1143.61
1144.62
1144.8
1144
1144.18
1143.57
1143.79
1143.3
1143.57
1143.09
1143.42
1143.65
1143.71
1143.4
1143.4
1144.22
1144.26
1143.93
1143.88
1143.07
1143.15
1143.28
1143.41
1143.22
1143.16
1143.04
1142.96
1143.7
1143.6
1143.5
1143.38
1142.9
1142.93
1142.74
1142.76
1142.86
1143.03
1142.76
1143.03
1143.05
1143.27
1142.91
1143.22
1142.7
1142.83
1142.63
1142.87
1142.57
1142.68
1142.52
1142.72
1144.82
1145.37
1145.88
1144.62
1145.24
1145.75
1144.75
1145.3
1145.82
1144.53
1145.15
1145.69
1144.64
1145.18
1145.71
1144.39
1145.04
1145.61
1145.66
1146.18
1146.74
1145.01
1145.56
1146.13
1144.65
1145.22
1145.81
1144.4
1144.97
1145.54
1144.23
1144.91
1145.54
1145.14
1145.7
1146.34
1144.53
1145.11
1145.75
1144.19
1144.81
1145.47
1144.04
1144.69
1145.36
1144.07
1144.79
1145.48
1142.9
1143.13
1143.74
1144.88
1143
1143.25
1143.88
1145.03
1142.85
1143.09
1143.71
1144.85
1142.92
1143.18
1143.82
1144.97
1142.79
1143.04
1143.64
1144.75
1142.77
1143.05
1143.68
1144.82
1142.79
1143.1
1143.78
1144.94
1142.72
1143.08
1143.78
1144.95
1142.65
1142.96
1143.58
1144.7
1142.67
1143
1143.56
1144.58
1142.75
1143.02
1143.58
1144.63
1142.78
1143.08
1143.6
1144.55
1142.58
1142.91
1143.58
1144.74
1142.58
1142.93
1143.53
1144.57
1142.49
1142.86
1143.55
1144.71
1142.5
1142.88
1143.49
1144.53
1142.91
1143.12
1143.68
1144.75
1143.06
1143.23
1143.7
1144.64
1142.9
1143.11
1143.66
1144.72
1143.05
1143.23
1143.7
1144.63
1142.88
1143.11
1143.64
1144.67
1143.02
1143.22
1143.69
1144.61
1142.88
1143.12
1143.63
1144.6
1142.99
1143.21
1143.68
1144.57
1142.89
1143.15
1143.64
1144.53
1143.28
1143.42
1143.85
1144.52
1143.53
1143.65
1144.09
1144.72
1143.25
1143.41
1143.84
1144.5
1143.5
1143.64
1144.08
1144.71
1143.2
1143.38
1143.82
1144.49
1143.45
1143.62
1144.07
1144.7
1143.13
1143.34
1143.79
1144.47
1143.38
1143.58
1144.05
1144.68
1143.03
1143.29
1143.76
1144.44
1143.3
1143.54
1144.03
1144.67
1142.85
1143.19
1143.71
1144.41
1143.1
1143.42
1143.95
1144.62
1142.94
1143.24
1143.73
1144.43
1143.2
1143.48
1143.99
1144.64
1142.77
1143.14
1143.68
1144.4
1143
1143.37
1143.92
1144.59
1142.7
1143.09
1143.65
1144.38
1142.91
1143.31
1143.88
1144.56
1146.61
1148
1149.19
1150.16
1150.91
1146.69
1148.07
1149.26
1150.23
1150.97
1146.59
1147.99
1149.19
1150.16
1150.9
1146.68
1148.06
1149.25
1150.22
1150.96
1146.57
1147.99
1149.18
1150.15
1150.9
1146.61
1148.01
1149.2
1150.17
1150.92
1146.65
1148.04
1149.24
1150.21
1150.96
1146.63
1148.03
1149.23
1150.2
1150.95
1146.56
1147.98
1149.18
1150.15
1150.9
1146.63
1148.08
1149.28
1150.25
1151
1146.58
1148
1149.2
1150.17
1150.92
1146.66
1148.11
1149.31
1150.28
1151.02
1146.56
1147.98
1149.18
1150.15
1150.9
1146.64
1148.09
1149.3
1150.27
1151.02
1146.54
1147.96
1149.17
1150.14
1150.89
1146.64
1148.09
1149.3
1150.28
1151.02
1146.61
1148.03
1149.22
1150.19
1150.94
1146.72
1148.16
1149.35
1150.32
1151.06
1146.61
1148.03
1149.23
1150.2
1150.95
1146.72
1148.16
1149.35
1150.32
1151.06
1146.61
1148.05
1149.24
1150.21
1150.96
1146.72
1148.16
1149.36
1150.33
1151.07
1146.64
1148.09
1149.29
1150.26
1151.01
1146.73
1148.18
1149.38
1150.35
1151.1
1146.71
1148.16
1149.36
1150.33
1151.07
1152.75
1152.97
1152.64
1152.87
1152.45
1152.71
1152.21
1152.52
1151.98
1152.33
1151.61
1152.01
1151.8
1152.2
1151.42
1151.81
1151.23
1151.58
1155.26
1158.01
1160.33
1162.13
1163.36
1155.22
1157.99
1160.33
1162.15
1163.4
1155.21
1157.99
1160.31
1162.12
1163.35
1155.18
1157.97
1160.32
1162.14
1163.39
1155.12
1157.94
1160.28
1162.09
1163.33
1155.09
1157.92
1160.29
1162.12
1163.37
1154.99
1157.86
1160.23
1162.06
1163.3
1154.97
1157.86
1160.24
1162.08
1163.34
1154.85
1157.77
1160.16
1162.01
1163.26
1154.85
1157.78
1160.18
1162.04
1163.31
1154.53
1157.54
1159.99
1161.87
1163.13
1154.57
1157.57
1160.03