/*--------------------------------*- C++ -*----------------------------------*\
  =========                 |
  \\      /  F ield         | OpenFOAM: The Open Source CFD Toolbox
   \\    /   O peration     | Website:  https://openfoam.org
    \\  /    A nd           | Version:  13
     \\/     M anipulation  |
\*---------------------------------------------------------------------------*/
FoamFile
{
    format      ascii;
    class       volScalarField;
    location    "394.831886";
    object      T;
}
// * * * * * * * * * * * * * * * * * * * * * * * * * * * * * * * * * * * * * //

dimensions      [0 0 0 1 0 0 0];

internalField   nonuniform List<scalar> 
5712
(
713.931
717.507
723.566
728.766
733.872
739.451
743.553
748.671
735.816
742.149
727.753
733.739
720.116
725.343
713.094
717.075
742.709
753.571
752.009
766.044
755.532
768.82
765.085
781.527
709.416
700.36
712.744
703.416
719.347
710.18
724.402
714.633
740.996
731.51
752.715
740.288
722.13
730.646
762.195
778.615
776.71
788.542
775.379
790.581
792.028
803.026
750.297
766.032
762.876
774.544
738.882
753.521
689.964
679.909
692.784
681.367
699.472
686.872
703.518
690.637
713.42
696.999
723.678
706.226
732.635
714.255
744.725
725.101
758.418
764.569
772.506
777.643
776.806
783.002
789.841
796.007
754.993
757.763
740.631
745.356
784.289
787.957
794.794
796.016
800.994
806.19
810.987
814.172
766.946
767.721
777.775
775.502
737.026
716.281
736.992
715.733
723.88
704.521
725.608
704.975
748.364
726.741
746.275
724.416
759.037
736.599
753.556
731.306
672.358
657.895
669.055
656.176
680.868
666.044
674.756
661.718
693.95
681.221
683.78
672.387
741.126
761.145
722.676
709.522
692.039
754.92
733.672
711.134
698.305
682.063
766.929
748.259
730.554
713.224
693.852
644.945
634.775
642.323
634.406
652.931
641.051
648.009
639.312
667.618
653.603
658.159
647.487
745.97
729.915
723.372
704.501
702.795
684.932
688.387
672.265
669.222
655.402
760.551
747.956
739.555
721.572
720.73
701.747
702.07
683.121
678.135
660.197
757.435
736.806
771.958
752.808
779.544
769.122
794.116
785.459
748.963
726.777
735.814
712.868
783.521
764.153
790.864
771.541
804.965
796.08
812.25
803.245
760.217
737.407
767.236
744.346
723.256
700.066
692.57
668.654
713.002
688.952
685.612
662.184
732.055
709.225
698.558
674.768
739.881
716.127
705.904
682.642
624.108
611.234
596.186
626.527
614.453
599.623
629.156
615.354
599.601
630.774
618.057
602.268
639.483
624.23
607.185
637.065
622.554
605.146
709.976
687.377
662.9
682.694
662.108
640.064
665.027
645.675
625.225
654.81
636.649
616.849
641.96
624.889
604.945
728.499
701.825
673.059
694.738
668.223
640.996
674.667
649.744
624.497
658.925
636.218
612.592
641.099
621.246
598.847
778.392
790.045
786.614
801.26
768.005
781.603
777.07
793.703
767.858
779.399
770.464
780.591
776.034
785.721
780.134
788.483
795.847
787.922
804.791
794.818
793.081
799.356
810.084
819.857
803.72
813.999
801.317
812.154
812.053
820.917
803.138
813.195
792.661
804.028
789.549
798.612
797.597
808.172
796.429
804.667
804.158
814.121
808.707
815.817
811.902
815.972
819.685
820.662
801.943
810.862
813.157
822.358
791.592
799.006
803.703
811.374
818.577
829.284
808.44
819.073
822.95
831.373
831.961
838.499
814.2
821.065
823.692
828.722
827.405
837.355
835.841
843.751
822.776
826.322
832.075
830.436
814.807
820.36
823.293
823.337
829.839
831.193
839.083
835.977
837.119
836.183
844.614
840.245
788.304
779.076
802.193
793.527
791.329
781.589
804.553
795.559
796.202
787.665
808.399
800.521
791.824
778.7
799.098
806.325
813.089
772.617
785.087
790.175
797.454
805.942
784.803
798.408
808.146
813.915
815.829
765.26
747.175
779.546
761.69
768.87
751.316
783.114
766.141
776.221
759.396
789.831
774.189
764.934
750.263
778.489
763.255
784.808
769.337
791.042
775.282
799.148
784.411
779.973
770.422
793.908
783.993
803.278
792.25
808.203
795.196
809.415
794.55
811.28
805.03
823.048
818.918
798.664
792.711
811.688
808.067
828.817
822.27
818.404
809.879
831.294
828.151
837.664
834.324
820.896
818.111
827.846
824.961
836.426
830.796
842.139
836.261
829.772
820.056
824.576
811.807
820.674
808.971
817.949
803.743
836.433
827.901
829.579
817.872
841.361
832.587
833.869
822.935
723.204
699.501
676.813
732.068
705.093
682.076
728.528
704.335
680.965
737.801
710.531
686.291
737.854
713.809
689.635
747.17
718.356
692.175
731.172
707.904
682.303
743.686
719.498
693.182
749.398
724.049
697.244
754.131
728.402
701.848
757.198
726.641
697.807
753.45
726.601
696.489
766.388
738.79
708.003
772.861
743.826
712.086
773.203
743.051
711.196
766.257
733.963
701.965
804.845
791.475
766.329
727.41
798.395
784.572
759.312
721.005
807.396
793.187
767.62
728.113
802.745
787.779
761.854
722.892
810.807
795.261
770.181
731.402
810.964
794.385
768.153
728.734
808.321
790.337
762.865
723.524
809.996
790.231
761.926
722.904
817.605
798.981
772.385
732.821
816.482
795.598
770.362
734.175
813.198
795.871
771.557
734.678
811.498
792.188
768.669
734.466
820.634
800.713
772.276
731.306
820.433
798.269
771.563
734.193
823.45
802.226
772.98
732.242
823.511
800.288
772.791
735.273
804.442
791.891
768.34
730.935
796.973
785.444
764.853
731.52
805.282
792.028
768.58
731.363
797.444
785.219
764.644
731.651
806.448
791.945
768.888
732.569
799.266
785.598
764.755
732.012
806.918
790.724
768.314
733.744
800.91
785.686
764.807
732.691
806.103
788.331
766.55
734.325
785.083
774.475
755.49
728.909
771.529
761.597
741.798
715.103
786.716
775.235
755.981
729.371
773.215
762.294
742.128
715.28
789.634
776.516
756.614
729.771
776.098
763.437
742.602
715.662
793.695
778.401
757.773
730.623
779.882
765.065
743.384
716.129
798.587
780.756
759.111
731.455
784.044
766.812
744.127
716.434
806.586
784.641
760.545
731.809
793.421
771.565
746.646
717.79
802.885
782.777
759.817
731.599
789.022
769.3
745.459
717.21
809.503
786.146
761.106
732.028
796.91
773.384
747.554
718.485
812.031
787.616
761.944
732.645
799.666
774.947
748.406
719.076
677.338
640.483
610.664
586.087
565.207
673.443
637.398
607.923
583.571
562.874
677.643
640.622
610.747
586.147
565.258
673.959
637.721
608.166
583.774
563.056
678.286
640.888
610.911
586.274
565.37
676.629
639.912
610.1
585.534
564.68
674.725
638.18
608.488
584.028
563.276
675.212
638.541
608.759
584.245
563.459
678.594
641.032
610.993
586.329
565.414
674.714
636.534
606.719
582.354
561.712
677.831
640.032
610.045
585.459
564.607
673.766
635.611
605.887
581.6
561.017
678.398
640.859
610.806
586.136
565.224
674.069
635.885
606.095
581.761
561.152
678.951
641.221
611.073
586.35
565.403
673.91
635.599
605.779
581.445
560.848
676.577
639.074
609.262
584.779
563.993
671.471
633.776
604.338
580.231
559.775
676.543
638.915
609.08
584.599
563.821
671.491
633.72
604.262
580.152
559.699
676.22
638.359
608.511
584.055
563.311
671.266
633.381
603.914
579.816
559.381
674.477
636.351
606.598
582.271
561.654
670.292
632.376
602.959
578.921
558.548
671.469
633.475
603.944
579.817
559.364
617.741
613.643
620.28
616.093
625.045
620.176
631.18
625.093
637.529
630.085
647.843
639.457
642.906
634.607
652.181
644.138
656.216
648.81
585.631
554.29
528.868
507.109
487.495
585.112
553.534
527.82
505.994
486.235
586.634
554.677
529.018
507.168
487.524
586.103
553.88
527.99
505.97
486.212
588.66
555.511
529.375
507.329
487.615
588.052
554.677
528.326
506.12
486.296
591.345
556.638
529.848
507.527
487.712
590.531
555.727
528.767
506.304
486.384
594.345
557.922
530.359
507.704
487.776
593.145
556.876
529.249
506.498
486.476
600.538
561.029
531.856
508.435
488.237
598.955
559.671
530.509
507.059
486.826
597.511
559.451
531.058
508.019
487.959
595.986
558.198
529.82
506.736
486.609
603.305
562.531
532.645
508.861
488.522
601.983
561.294
531.354
507.517
487.152
605.862
563.95
533.396
509.259
488.775
604.929
562.864
532.212
507.984
487.423
806.593
800.248
786.318
793.729
758.57
761.661
765.271
769.416
765.793
770.796
755.442
760.715
744.565
750.969
751.523
757.249
752.382
756.823
749.998
753.462
797.181
790.653
732.508
713.286
705.435
704.759
722.405
764.662
744.47
756.198
722.531
693.642
739.61
738.891
714.138
729.451
722.26
715.729
777.904
766.593
746.348
748.373
757.941
759.496
750.524
743.369
716.301
720.807
733.585
737.114
791.913
785.024
783.394
776.546
768.171
773.568
749.509
730.658
751.311
819.183
827.262
827.479
820.468
806.164
809.651
817.951
818.412
810.844
794.65
747.966
754.308
753.549
745.592
730.464
727.949
733.87
732.991
725.259
710.738
719.88
725.763
724.981
717.46
703.24
719.122
724.923
724.065
716.493
702.271
737.474
743.636
742.857
735.052
720.256
786.801
797.074
799.83
795.234
783.489
766.96
777.841
780.99
776.76
764.741
774.88
784.109
786.027
779.963
765.234
743.348
753.771
756.376
751.704
738.952
712.762
723.002
725.524
721.153
709.138
756.344
763.98
764.444
757.344
742.425
756.519
765.079
766.485
760.166
745.65
730.667
738.654
739.85
733.733
719.925
745.454
752.53
752.582
745.315
730.579
738.329
745.657
746.075
739.211
724.844
731.15
737.919
737.882
730.772
716.468
799.728
808.689
810.35
804.697
791.629
784.76
793.264
794.296
787.35
771.905
763.015
770.416
770.542
763.072
747.812
764.872
772.022
771.851
764.108
748.668
775.132
782.824
783.087
775.571
760.011
776.431
783.794
783.68
775.82
760.045
766.819
773.669
773.155
765.106
749.466
759.422
766.178
765.672
757.734
742.329
731.382
737.731
737.249
729.78
715.295
735.923
742.184
741.536
733.86
719.163
749.493
756.351
756.112
748.549
733.569
752.993
759.717
759.28
751.5
736.329
813.571
822.076
822.808
816.202
802.305
803.585
811.829
812.304
804.727
788.574
803.424
811.828
812.893
806.198
791.486
794.356
802.214
802.397
794.579
778.435
785.5
793.075
793.064
785.173
769.176
791.756
800.106
800.947
793.768
778.042
765.822
772.725
772.28
764.3
748.716
746.123
752.532
751.874
744.027
728.995
767.831
774.924
774.649
766.778
751.203
820.02
808.846
820.475
808.604
832.455
820.053
831.879
820.429
821.221
821.508
811.232
816.096
833.594
834.099
823.692
829.237
806.366
791.563
795.891
781.661
807.277
794.194
795.861
782.948
798.751
807.73
804.626
809.907
797.562
788.202
799.674
791.614
808.184
799.286
811.655
803.209
821.571
813.18
787.975
779.508
796.156
786.311
777.2
767.584
776.145
760.159
766.775
751.382
779.187
760.962
768.289
751.817
784.808
762.111
777.743
756.55
767.991
746.867
757.339
736.642
817.486
813.607
814.741
811.164
832.472
830.622
829.802
828.575
798.951
790.844
801.871
793.445
809.639
807.539
803
802.47
824.948
825.2
818.701
820.441
793.557
787.136
786.482
781.901
780.744
756.693
768.519
744.962
783.453
758.566
770.889
746.623
775.244
751.923
764.91
741.827
767.914
745.058
759.722
737.098
779.274
775.775
762.563
757.202
781.875
778.442
762.325
756.705
785.483
783.225
761.389
756.374
817.104
832.194
801.351
783.041
756.728
831.884
817.712
801.936
783.141
754.049
830.791
814.29
794.441
771.91
746.738
766.94
758.084
738.302
725.976
771.216
762.232
739.741
727.297
777.714
769.169
741.552
728.778
829.038
820.412
814.059
805.061
797.208
788.713
776.336
767.611
739.286
725.839
827.964
818.125
809.792
796.827
788.617
774.611
763.929
749.449
731.183
716.046
805.84
787.769
803.456
785.52
826.688
816.747
824.665
815.551
779.957
759.002
782.706
762.102
801.26
782.317
796.62
777.266
822.045
812.751
817.788
808.498
777.851
755.546
772.961
750.09
751.967
729.391
717.666
693.782
756.051
733.327
722.92
699.752
748.729
726.003
713.097
689.098
745.514
721.646
710.547
687.132
748.345
737.185
720.246
711.549
752.862
740.655
721.021
711.954
758.723
743.4
721.374
710.235
806.333
784.894
790.625
770.325
775.708
757.275
755.415
737.312
718.283
704.782
802.072
778.122
777.468
754.867
755.905
735.621
733.639
716.132
707.833
693.362
849.759
851.146
839.797
845.991
843.296
844.494
833.244
839.577
850.507
851.184
839.39
840.373
851.477
852.369
839.8
841.061
844.101
852.921
848.451
853.837
853.399
844.551
838.213
829.484
832.123
823.776
832.834
823.519
840.078
830.851
833.304
824.328
849.714
844.741
839.146
834.748
851.586
846.445
840.493
836.589
854.385
848.951
847.364
843.071
837.459
834.019
828.846
827.128
852.196
851.765
849.638
850.581
844.327
843.742
841.743
842.086
853.178
854.345
855.69
855.107
844.964
847.931
839.099
843.959
837.046
839.024
831.054
834.646
848.514
852.135
842.767
848.622
853.56
848.453
853.685
847.025
855.943
849.72
854.073
846.771
848.952
845.115
851.903
845.906
843.461
840.899
848.854
843.555
853.759
851.21
848.15
844.543
854.639
851.758
848.603
844.619
855.457
853
848.953
845.332
851.882
844
855.316
855.364
848.237
843.122
850.744
853.71
853.44
845.527
843.641
851.287
854.317
853.073
845.327
842.975
829.302
835.3
821.266
844.568
831.532
836.443
822.922
847.111
835.18
838.399
825.813
840.568
832.067
848.165
839.013
850.306
840.419
848.821
837.874
839.987
828.26
841.572
833.57
848.943
840.445
851.238
841.468
848.928
837.357
840.403
828.25
850.016
842.865
848.697
843.329
842.188
835.838
840.189
835.506
851.467
843.932
852.138
842.903
845.939
841.849
842.431
838.665
836.957
833.399
833.055
829.789
849.472
843.004
846.385
840.142
849.007
838.745
839.828
827.698
849.31
837.248
840.319
827.281
847.642
838.479
838.483
826.892
845.171
836.081
836.777
825.775
813.119
798.027
801.304
784.268
816.363
800.052
803.121
785.068
820.231
801.601
806.006
784.845
818.043
796.275
824.39
802.58
825.854
804.466
822.37
800.396
808.149
783.045
818.989
794.057
825.197
799.795
824.856
799.027
818.837
792.594
805.986
777.629
829.442
805.569
774.341
731.905
820.558
797.342
766.625
725.139
830.495
806.491
775.139
732.257
822.407
799.17
768.387
726.562
831.611
807.353
777.108
735.21
827.404
803.98
773.768
731.914
819.176
796.706
766.587
725.651
813.89
792.527
763.271
723.685
831.289
807.125
777.26
735.693
827.353
802.246
774.5
736.804
831.205
806.508
777.848
738.29
826.688
801.356
774.194
737.796
829.309
805.9
775.414
733.207
827.018
802.33
774.148
735.916
826.437
804.018
774.067
732.903
825.729
801.662
773.674
735.871
831.808
807.436
777.164
735.922
826.846
802.204
774.371
737.037
831.491
806.993
777.064
736.107
826.161
801.424
773.841
736.954
830.534
805.835
776.812
736.962
825.523
800.607
773.302
736.906
828.278
803.23
775.56
737.806
824.49
799.357
772.641
737.137
824.887
799.496
773.14
738.184
816.442
791.82
765.225
735.1
803.253
778.933
751.568
721.522
816.725
791.978
765.421
735.373
803.479
779.008
751.6
721.517
817.031
792.052
765.406
735.343
803.704
778.969
751.476
721.538
817.511
792.202
765.688
735.622
804.1
779.002
751.463
721.519
817.963
792.281
765.926
735.858
804.344
778.802
751.215
721.224
817.001
791.098
764.585
734.616
804.642
778.545
750.939
720.757
817.708
791.807
765.303
735.261
804.811
778.892
751.256
721.18
815.712
790.04
763.588
733.814
803.555
777.585
750.165
720.309
814.086
788.912
762.776
733.251
801.831
776.327
749.268
719.681
679.625
641.681
611.289
586.427
565.425
675.604
638.54
608.52
583.897
563.083
679.731
641.714
611.316
586.457
565.457
675.847
638.718
608.687
584.058
563.238
680.13
641.847
611.41
586.546
565.545
678.206
640.741
610.533
585.769
564.832
675.819
638.758
608.79
584.193
563.382
675.626
638.76
608.875
584.308
563.501
680.019
641.772
611.377
586.536
565.547
675.966
637.18
607.055
582.538
561.831
679.514
640.901
610.497
585.704
564.764
675.262
636.378
606.286
581.818
561.157
679.377
641.371
611.072
586.28
565.316
674.914
636.321
606.32
581.883
561.228
679.292
641.401
611.167
586.401
565.436
674.205
635.751
605.858
581.488
560.874
678.977
640.311
609.904
585.129
564.217
673.924
635.023
604.983
580.582
559.999
678.797
640.075
609.682
584.926
564.031
673.831
634.907
604.876
580.486
559.913
678.242
639.396
609.048
584.347
563.498
673.395
634.46
604.472
580.119
559.576
676.271
637.266
607.072
582.529
561.821
672.163
633.324
603.45
579.187
558.721
673.113
634.314
604.38
580.054
559.517
684.782
678.615
684.079
677.803
682.542
676.036
680.137
673.647
676.243
670.44
666.78
659.844
670.914
664.636
663.193
655.862
659.816
652.588
623.592
573.755
538.756
512.244
490.581
623.858
573.338
537.827
511.183
489.327
623.07
573.47
538.599
512.155
490.527
623.176
572.939
537.673
510.988
489.213
622.063
572.941
538.328
512.013
490.444
622.166
572.421
537.407
510.85
489.134
620.475
572.095
537.874
511.756
490.278
620.696
571.659
537.002
510.622
488.986
618.141
570.836
537.158
511.32
489.983
618.78
570.658
536.453
510.301
488.777
613.04
568.131
535.703
510.52
489.524
612.989
567.601
534.779
509.357
488.232
615.543
569.494
536.429
510.904
489.73
616.06
569.279
535.699
509.869
488.515
610.676
566.77
534.96
510.122
489.303
610.196
566.014
533.925
508.913
488.01
608.282
565.349
534.164
509.678
489.035
607.583
564.401
533.058
508.445
487.708
818.382
812.458
821.25
827.496
847.305
835.907
848.326
836.101
841.834
829.246
841.026
829.535
651.413
654.293
660.154
669.195
681.608
697.161
649.507
652.315
657.972
666.504
677.808
691.46
645.464
636.002
648.556
639.344
654.919
646.297
664.97
657.609
678.838
672.618
695.798
688.911
714.755
732.384
748.518
762.605
773.259
779.787
706.564
721.811
736.016
748.195
757.358
762.767
663.732
668.571
667.611
660.862
648.428
666.718
671.603
670.641
663.843
651.31
672.793
677.77
676.805
669.905
657.17
682.165
687.286
686.319
679.264
666.219
695.039
700.366
699.404
692.143
678.675
711.184
716.785
715.846
708.34
694.348
661.762
666.578
665.625
658.915
646.549
664.674
669.535
668.583
661.825
649.363
670.538
675.49
674.537
667.683
655.027
679.386
684.477
683.525
676.527
663.58
691.113
696.396
695.453
688.271
674.94
705.286
710.814
709.896
702.503
688.715
657.574
662.33
661.384
654.747
642.522
647.782
652.408
651.487
645.03
633.137
660.78
665.584
664.636
657.945
645.613
651.246
655.923
654.998
648.483
636.475
667.374
672.277
671.323
664.521
651.969
658.451
663.235
662.304
655.666
643.418
677.791
682.852
681.893
674.917
662.02
670.176
675.139
674.202
667.368
654.731
692.171
697.46
696.505
689.296
675.927
685.742
690.954
690.024
682.94
669.791
709.775
715.361
714.428
706.949
693.005
702.656
708.159
707.256
699.918
686.221
729.469
735.409
734.528
726.772
712.201
747.828
754.155
753.385
745.424
730.297
764.69
771.442
770.856
762.783
747.186
779.489
786.69
786.355
778.276
762.324
790.752
798.313
798.191
790.158
773.985
797.637
805.35
805.287
797.241
780.929
720.985
726.805
725.938
718.332
704.048
736.856
743.002
742.221
734.43
719.661
751.675
758.163
757.506
749.583
734.382
764.413
771.226
770.713
762.713
747.164
774.012
781.074
780.675
772.631
756.834
779.659
786.835
786.466
778.372
762.422
651.415
654.315
660.248
669.46
682.221
698.469
649.522
652.379
658.142
666.886
678.565
692.812
645.456
635.989
648.548
639.321
654.96
646.312
665.15
657.744
679.303
672.96
697.029
690.278
717.169
736.117
753.488
768.05
777.612
781.468
708.716
724.813
739.65
751.86
760.14
763.812
663.732
668.568
667.605
660.854
648.418
666.733
671.609
670.638
663.831
651.294
672.875
677.835
676.851
669.934
657.189
682.413
687.506
686.504
679.418
666.352
695.628
700.909
699.888
692.57
679.061
712.463
717.991
716.953
709.348
695.278
661.775
666.588
665.632
658.919
646.551
664.732
669.583
668.62
661.853
649.384
670.698
675.632
674.657
667.783
655.114
679.754
684.816
683.827
676.793
663.82
691.852
697.09
696.086
688.845
675.467
706.617
712.078
711.067
703.579
689.713
657.564
662.317
661.369
654.73
642.504
647.767
652.39
651.466
645.008
633.114
660.764
665.56
664.603
657.905
645.57
651.215
655.883
654.95
648.429
636.418
667.402
672.288
671.317
664.499
651.94
658.452
663.219
662.271
655.618
643.363
677.952
682.984
681.991
674.985
662.071
670.289
675.219
674.247
667.382
654.727
692.606
697.843
696.826
689.56
676.152
686.045
691.196
690.196
683.051
669.866
710.966
716.467
715.424
707.839
693.816
703.978
709.384
708.355
700.896
687.108
731.849
737.677
736.638
728.718
714.011
751.517
757.681
756.678
748.473
733.139
769.598
776.129
775.228
766.826
750.951
784.848
791.786
791.089
782.636
766.374
795.017
802.345
801.915
793.571
777.141
799.279
806.896
806.709
798.54
782.127
723.112
728.838
727.836
720.088
705.684
739.828
745.848
744.886
736.902
721.967
755.272
761.607
760.729
752.572
737.171
768.035
774.687
773.944
765.705
749.952
776.755
783.688
783.109
774.879
758.925
780.688
787.813
787.375
779.21
763.201
801.257
793.41
736.892
715.82
709.41
707.414
726.429
804.033
793.148
785.986
768.226
757.225
764.366
742.729
739.618
729.325
805.53
787.415
760.683
759.589
772.956
770.342
757.237
750.956
725.045
727.187
744.047
745.567
803.996
792.312
800.999
785.783
778.441
790.2
757.386
736.349
761.146
823.084
830.741
830.608
823.264
808.676
812.316
820.421
820.656
812.87
796.497
752.287
758.424
757.377
749.122
733.746
730.436
736.225
735.167
727.253
712.586
723.801
729.496
728.449
720.654
706.205
721.727
727.385
726.332
718.564
704.183
741.432
747.386
746.321
738.225
723.19
823.77
829.972
828.985
820.894
806.641
812.182
817.81
816.32
807.913
793.085
803.282
810.213
809.426
800.821
784.191
785.982
791.213
789.452
780.927
765.364
773.335
779.749
778.706
770.176
754.172
780.751
787.209
786.178
777.624
761.482
758.309
764.506
763.451
755.12
739.571
755.083
761.231
760.187
751.931
736.503
744.426
750.425
749.381
741.278
726.182
825.735
832.291
831.509
823.464
808.785
804.852
811.965
811.269
802.641
785.896
776.947
783.463
782.455
773.878
757.751
775.831
782.35
781.347
772.776
756.674
789.741
796.532
795.634
786.971
770.506
787.051
793.829
792.933
784.286
767.875
773.436
779.967
779.007
770.498
754.474
766.872
773.243
772.211
763.738
747.897
739.997
745.935
744.883
736.826
721.853
742.213
748.176
747.111
739.003
723.947
759.685
765.916
764.862
756.498
740.889
761.268
767.532
766.479
758.081
742.415
825.168
832.463
832.157
824.544
809.838
810.655
818.424
818.321
810.174
793.561
820.393
827.43
827.024
818.876
803.146
803.379
810.717
810.22
801.717
785.025
795.557
802.582
801.835
793.198
776.597
807.867
815.168
814.669
806.164
789.395
773.569
780.077
779.089
770.557
754.517
751.716
757.831
756.771
748.516
733.149
777.465
784.033
783.055
774.475
758.326
737.323
752.731
760.949
761.971
755.82
740.323
823.847
823.66
835.98
835.878
823.334
822.093
835.806
834.779
809.811
794.152
810.229
796.507
809.408
810.217
799.716
824.817
824.238
836.656
836.949
823.368
821.656
835.873
834.123
809.953
793.993
810.037
796.062
808.668
809.331
798.69
824.717
823.63
836.187
836.996
822.018
819.523
834.59
831.999
809.465
789.973
809.021
791.943
806.778
806.931
794.348
818.949
817.432
829.89
831.132
814.957
811.156
827.582
823.904
802.91
781.863
802.111
783.457
799.077
798.463
785.738
807.905
806.131
818.171
819.657
803.039
798.11
815.451
811.164
791.827
771.724
790.759
772.685
787.351
785.708
774.615
788.373
786.532
797.89
799.468
783.464
778.9
795.01
790.735
773.885
756.725
772.869
757.351
769.672
768.195
759.031
851.199
851.682
845.377
845.046
851.894
851.697
845.459
844.817
854.184
855.097
854.508
855.492
854.851
854.537
855.335
852.167
852.221
846.033
846.109
851.831
851.06
845.485
844.277
855.203
854.708
855.011
854.562
854.437
853.562
853.898
851.981
851.48
845.509
846.113
850.301
848.748
844.135
841.989
853.852
850.034
853.123
849.824
851.566
850.33
849.065
845.585
844.638
839.002
840.04
842.718
840.077
836.94
833.92
846.205
839.717
845.073
839.352
842.609
840.61
838.549
833.392
832.198
826.927
828.202
829.666
826.045
824.492
820.876
832.933
825.457
831.559
825.109
828.693
826.079
824.539
812.221
810.943
806.119
807.491
808.396
805.121
803.525
799.876
811.966
806.885
810.676
806.342
808.197
806.037
805.681
713.283
716.667
723.452
728.67
733.785
739.371
743.484
748.606
735.74
742.078
727.656
733.65
719.991
725.229
712.357
716.149
742.65
753.533
751.954
766.009
755.482
768.789
765.038
781.497
708.883
699.933
712.032
702.826
719.259
710.114
724.338
714.59
740.95
731.455
752.68
740.249
722.081
730.606
762.16
778.595
776.683
788.525
775.348
790.562
792.005
803.01
750.265
766.012
762.849
774.526
738.853
753.503
689.587
679.568
692.262
680.881
699.431
686.835
703.491
690.612
713.386
696.973
723.649
706.202
732.612
714.236
744.709
725.088
758.394
764.551
772.483
777.627
776.783
782.985
789.82
795.992
754.97
757.748
740.607
745.339
784.27
787.945
794.781
796.006
800.977
806.178
810.975
814.163
766.927
767.708
777.762
775.493
737.005
716.263
736.978
715.722
723.858
704.502
725.594
704.962
748.347
726.726
746.263
724.406
759.024
736.588
753.546
731.297
671.974
657.545
668.77
655.929
680.852
666.037
674.726
661.696
693.93
681.209
683.759
672.372
741.11
761.131
722.66
709.506
692.023
754.908
733.658
711.121
698.294
682.051
766.915
748.244
730.539
713.211
693.84
644.647
634.521
642.14
634.276
652.93
641.058
647.999
639.304
667.613
653.602
658.15
647.48
745.96
729.908
723.361
704.493
702.784
684.924
688.378
672.257
669.212
655.392
760.541
747.949
739.543
721.563
720.717
701.735
702.058
683.109
678.125
660.186
757.423
736.795
771.946
752.798
779.532
769.113
794.105
785.451
748.952
726.767
735.802
712.856
783.511
764.146
790.856
771.534
804.956
796.073
812.242
803.239
760.208
737.398
767.228
744.34
723.246
700.056
692.562
668.646
712.991
688.94
685.603
662.174
732.046
709.218
698.55
674.761
739.873
716.121
705.897
682.636
623.9
611.051
596.025
626.422
614.364
599.543
629.166
615.361
599.606
630.765
618.048
602.258
639.484
624.232
607.187
637.058
622.548
605.14
709.971
687.374
662.897
682.689
662.103
640.06
665.023
645.671
625.222
654.806
636.646
616.846
641.952
624.882
604.937
728.493
701.821
673.056
694.731
668.218
640.992
674.657
649.737
624.492
658.914
636.209
612.584
641.088
621.237
598.837
778.358
790.02
786.583
801.237
767.963
781.575
777.032
793.677
767.416
778.992
769.86
780.037
775.995
785.693
780.116
788.473
795.826
787.895
804.773
794.797
793.058
799.341
810.065
819.845
803.7
813.984
801.301
812.142
812.037
820.906
803.126
813.186
792.326
803.8
789.07
798.238
797.576
808.156
796.42
804.664
804.143
814.109
808.696
815.811
811.893
815.968
819.678
820.658
801.926
810.849
813.14
822.347
791.572
798.991
803.684
811.36
818.563
829.275
808.426
819.062
822.937
831.364
831.951
838.492
814.185
821.054
823.681
828.714
827.393
837.347
835.832
843.745
822.766
826.316
832.067
830.431
814.796
820.352
823.285
823.331
829.831
831.188
839.077
835.973
837.113
836.179
844.609
840.242
788.05
778.874
802.054
793.433
791.322
781.586
804.537
795.545
796.192
787.657
808.387
800.51
791.812
778.687
799.088
806.316
813.08
772.605
785.077
790.166
797.447
805.933
784.79
798.396
808.137
813.908
815.823
765.085
746.984
779.477
761.599
768.87
751.322
783.104
766.129
776.216
759.395
789.822
774.18
764.925
750.256
778.48
763.249
784.8
769.331
791.035
775.276
799.14
784.403
779.963
770.415
793.9
783.986
803.27
792.243
808.195
795.188
809.408
794.542
811.271
805.023
823.04
818.911
798.653
792.704
811.678
808.06
828.81
822.265
818.396
809.872
831.287
828.146
837.658
834.32
820.888
818.105
827.84
824.956
836.42
830.792
842.134
836.257
829.766
820.051
824.572
811.802
820.667
808.964
817.944
803.737
836.429
827.897
829.576
817.869
841.357
832.584
833.866
822.933
723.002
699.289
676.609
731.972
704.968
681.947
728.537
704.343
680.969
737.784
710.522
686.281
737.856
713.812
689.637
747.161
718.349
692.169
731.167
707.901
682.3
743.682
719.495
693.179
749.395
724.047
697.242
754.128
728.4
701.846
757.19
726.635
697.799
753.445
726.598
696.487
766.383
738.787
708.001
772.855
743.822
712.083
773.195
743.044
711.189
766.249
733.955
701.956
804.701
791.375
766.237
727.313
798.116
784.353
759.118
720.828
807.385
793.181
767.619
728.117
802.748
787.786
761.866
722.912
810.8
795.258
770.18
731.406
810.963
794.388
768.158
728.744
808.32
790.339
762.869
723.531
809.995
790.232
761.93
722.91
817.601
798.981
772.387
732.824
816.479
795.597
770.362
734.177
813.193
795.868
771.556
734.679
811.493
792.185
768.668
734.468
820.632
800.713
772.278
731.31
820.431
798.269
771.564
734.196
823.45
802.228
772.983
732.247
823.51
800.289
772.793
735.276
804.384
791.87
768.319
730.896
796.961
785.466
764.876
731.528
805.269
792.019
768.575
731.362
797.432
785.21
764.639
731.65
806.438
791.939
768.884
732.569
799.256
785.591
764.752
732.011
806.911
790.72
768.312
733.744
800.903
785.681
764.805
732.689
806.098
788.328
766.548
734.324
785.115
774.541
755.56
728.957
771.567
761.672
741.883
715.185
786.705
775.228
755.975
729.368
773.202
762.284
742.121
715.275
789.625
776.51
756.612
729.771
776.089
763.431
742.598
715.66
793.688
778.397
757.771
730.622
779.875
765.06
743.382
716.128
798.582
780.752
759.108
731.452
784.038
766.808
744.125
716.433
806.583
784.64
760.545
731.809
793.418
771.563
746.645
717.79
802.881
782.774
759.815
731.597
789.017
769.297
745.458
717.209
809.501
786.146
761.107
732.029
796.908
773.384
747.554
718.486
812.03
787.616
761.945
732.647
799.665
774.947
748.408
719.078
677.307
640.473
610.659
586.084
565.204
673.335
637.317
607.854
583.509
562.817
677.647
640.629
610.754
586.154
565.265
673.981
637.744
608.187
583.794
563.075
678.292
640.895
610.919
586.283
565.378
676.641
639.925
610.114
585.547
564.693
674.734
638.19
608.498
584.038
563.285
675.22
638.55
608.769
584.254
563.468
678.6
641.04
611.001
586.337
565.422
674.718
636.54
606.725
582.361
561.718
677.836
640.039
610.052
585.466
564.614
673.77
635.615
605.893
581.606
561.023
678.405
640.867
610.814
586.144
565.231
674.074
635.891
606.102
581.768
561.159
678.958
641.23
611.082
586.358
565.412
673.917
635.606
605.788
581.454
560.856
676.605
639.116
609.304
584.819
564.03
671.532
633.844
604.404
580.293
559.832
676.538
638.912
609.08
584.599
563.822
671.482
633.715
604.26
580.151
559.698
676.219
638.361
608.513
584.058
563.314
671.263
633.38
603.915
579.818
559.383
674.48
636.356
606.603
582.277
561.66
670.293
632.378
602.962
578.925
558.553
671.471
633.479
603.949
579.822
559.369
617.596
613.562
620.28
616.081
625.04
620.169
631.173
625.087
637.523
630.078
647.837
639.45
642.9
634.599
652.175
644.132
656.211
648.805
585.559
554.251
528.842
507.09
487.479
585.092
553.538
527.832
506.008
486.248
586.632
554.677
529.019
507.169
487.525
586.091
553.872
527.984
505.965
486.208
588.656
555.509
529.375
507.329
487.615
588.046
554.674
528.324
506.119
486.295
591.342
556.636
529.848
507.527
487.713
590.527
555.725
528.765
506.303
486.384
594.341
557.92
530.357
507.702
487.775
593.14
556.873
529.247
506.496
486.475
600.533
561.025
531.851
508.431
488.233