/*--------------------------------*- C++ -*----------------------------------*\
  =========                 |
  \\      /  F ield         | OpenFOAM: The Open Source CFD Toolbox
   \\    /   O peration     | Website:  https://openfoam.org
    \\  /    A nd           | Version:  13
     \\/     M anipulation  |
\*---------------------------------------------------------------------------*/
FoamFile
{
    format      ascii;
    class       volScalarField;
    location    "129.831886";
    object      T;
}
// * * * * * * * * * * * * * * * * * * * * * * * * * * * * * * * * * * * * * //

dimensions      [0 0 0 1 0 0 0];

internalField   nonuniform List<scalar> 
5712
(
1020.43
1020.2
1019.81
1019.46
1018.91
1018.55
1017.69
1017.39
1017.97
1017.62
1018.93
1018.58
1019.65
1019.32
1020.19
1019.94
1018.6
1018.11
1017.98
1017.32
1017.11
1016.49
1016.54
1015.77
1021.2
1022.49
1020.96
1022.16
1020.61
1021.84
1020.23
1021.39
1019.27
1019.98
1018.61
1019.5
1021.04
1020.3
1017.23
1016.12
1016.59
1015.77
1015.87
1014.93
1015.12
1014.41
1018.52
1017.36
1017.83
1016.96
1019.56
1018.44
1023.96
1024.88
1023.36
1024.31
1023.31
1024.45
1022.59
1023.65
1022.36
1023.89
1021.23
1022.67
1020.37
1021.79
1019.37
1020.81
1018.19
1017.97
1017.22
1017.11
1016.21
1015.94
1015.44
1015.17
1018.96
1019.2
1020.1
1020.12
1016.41
1016.4
1015.68
1015.81
1014.74
1014.53
1014.1
1013.98
1018.04
1018.44
1017.22
1017.83
1020.69
1022.41
1021.31
1023.24
1021.91
1023.67
1022.27
1024.28
1019.68
1021.36
1020.52
1022.41
1018.8
1020.44
1019.9
1021.77
1026.1
1028.06
1026.42
1028.36
1025.49
1027.32
1026.09
1027.94
1024.46
1025.87
1025.51
1027.04
1019.56
1017.22
1021.71
1023.33
1025.14
1017.57
1020.05
1022.62
1024.36
1026.3
1016.92
1019.12
1021.27
1023.34
1025.4
1029.87
1030.79
1030.85
1031.65
1028.95
1030
1030.22
1031.09
1027.33
1028.51
1029.14
1030.18
1018.14
1019.09
1020.86
1022.15
1023.39
1024.73
1025.41
1026.74
1028.12
1029.45
1017.34
1018.1
1019.81
1021.14
1022.15
1023.68
1024.51
1026.16
1027.53
1029.27
1018.61
1020.11
1017.55
1018.88
1016.18
1016.63
1015.24
1015.5
1020.04
1021.8
1021.08
1022.95
1016.66
1017.99
1016.09
1017.36
1014.48
1014.74
1013.94
1014.15
1019.1
1020.89
1018.52
1020.27
1022.9
1025.04
1026.49
1029.08
1023.74
1025.99
1027.06
1029.6
1022.13
1024.2
1025.95
1028.5
1021.4
1023.49
1025.18
1027.6
1031.11
1031.58
1032.4
1031.27
1031.5
1032.26
1030.52
1031.08
1031.94
1030.82
1031.09
1031.9
1029.29
1030.01
1030.97
1030.13
1030.51
1031.42
1020.27
1021.63
1023.1
1023.55
1024.76
1026.08
1026.03
1027.09
1028.27
1027.81
1028.71
1029.84
1029.59
1030.11
1031.17
1019.19
1020.71
1022.37
1022.95
1024.56
1026.22
1025.52
1026.96
1028.47
1027.61
1028.72
1030.07
1029.59
1030.25
1031.47
1014.48
1013.98
1014.05
1013.42
1015.66
1015.05
1015.17
1014.42
1014.32
1013.38
1014.2
1013.33
1014.02
1013.18
1013.81
1013.03
1013.12
1013.52
1012.84
1013.31
1012.98
1012.65
1012.94
1012.4
1013.84
1013.23
1012.84
1012.31
1012.45
1011.95
1012.45
1011.94
1012.42
1011.58
1012.59
1011.81
1012.28
1011.43
1012.32
1011.55
1012.14
1011.21
1011.91
1011.08
1011.74
1011.03
1011.31
1010.74
1013.35
1012.92
1012.8
1012.33
1014.58
1014.21
1013.94
1013.54
1012.01
1011.46
1012.49
1011.98
1012.27
1011.82
1011.75
1011.38
1013.34
1012.97
1012.76
1012.48
1011.55
1011.01
1011.08
1010.63
1011.36
1010.66
1010.9
1010.51
1011.74
1010.98
1011.35
1010.89
1010.98
1010.38
1010.51
1010.19
1010.57
1010.08
1010.17
1009.92
1012.48
1012.91
1011.67
1012.11
1012.45
1012.9
1011.61
1012.06
1012.4
1012.81
1011.5
1011.91
1013.76
1015.24
1012.85
1012.13
1011.36
1015.56
1014.1
1013.26
1012.54
1011.72
1014.93
1013.5
1012.47
1011.79
1011.26
1013.64
1014.66
1012.86
1013.84
1013.57
1014.54
1012.73
1013.67
1013.39
1014.31
1012.49
1013.36
1015.98
1016.77
1014.43
1015.23
1013.56
1014.37
1012.88
1013.71
1012.11
1012.94
1015.19
1015.66
1013.72
1014.18
1012.72
1013.27
1012.1
1012.77
1011.63
1012.46
1012.84
1013.01
1012.23
1012.25
1014.17
1014.31
1013.44
1013.37
1011.46
1011.68
1011.98
1012.34
1011.77
1011.67
1011.34
1011.2
1012.89
1012.7
1012.4
1012.17
1011.05
1011.16
1010.67
1010.75
1011.01
1011.45
1010.84
1011.51
1011.48
1012.04
1011.2
1011.97
1010.63
1010.97
1010.53
1011.12
1010.31
1010.61
1010.25
1010.77
1016.04
1017.43
1018.76
1015.54
1017.1
1018.43
1015.84
1017.24
1018.6
1015.3
1016.87
1018.26
1015.52
1016.9
1018.28
1014.91
1016.55
1018.03
1017.84
1019.18
1020.65
1016.32
1017.7
1019.2
1015.48
1016.92
1018.44
1014.88
1016.32
1017.79
1014.49
1016.21
1017.83
1016.51
1017.97
1019.63
1015.08
1016.55
1018.22
1014.29
1015.85
1017.56
1013.95
1015.59
1017.31
1014.08
1015.89
1017.66
1011.26
1011.87
1013.42
1016.24
1011.53
1012.18
1013.78
1016.62
1011.15
1011.79
1013.33
1016.19
1011.33
1012.02
1013.63
1016.49
1011
1011.67
1013.16
1015.93
1010.95
1011.7
1013.28
1016.11
1011.01
1011.84
1013.53
1016.43
1010.86
1011.78
1013.54
1016.45
1010.66
1011.46
1013.01
1015.81
1010.71
1011.58
1013
1015.52
1010.9
1011.62
1013.03
1015.63
1010.98
1011.76
1013.09
1015.47
1010.47
1011.35
1013.02
1015.92
1010.48
1011.42
1012.92
1015.51
1010.28
1011.23
1012.96
1015.84
1010.29
1011.28
1012.83
1015.4
1011.31
1011.85
1013.26
1015.92
1011.67
1012.14
1013.34
1015.67
1011.27
1011.84
1013.23
1015.87
1011.65
1012.14
1013.34
1015.65
1011.23
1011.83
1013.18
1015.74
1011.58
1012.12
1013.32
1015.6
1011.22
1011.87
1013.15
1015.57
1011.5
1012.1
1013.29
1015.51
1011.25
1011.96
1013.19
1015.4
1012.24
1012.64
1013.73
1015.41
1012.88
1013.24
1014.36
1015.95
1012.16
1012.6
1013.7
1015.38
1012.8
1013.2
1014.34
1015.94
1012.04
1012.53
1013.66
1015.35
1012.67
1013.14
1014.31
1015.91
1011.85
1012.43
1013.59
1015.28
1012.5
1013.05
1014.26
1015.87
1011.61
1012.3
1013.5
1015.21
1012.29
1012.95
1014.2
1015.84
1011.17
1012.06
1013.38
1015.16
1011.78
1012.66
1014.02
1015.72
1011.39
1012.18
1013.44
1015.19
1012.04
1012.81
1014.11
1015.77
1010.98
1011.94
1013.33
1015.14
1011.55
1012.53
1013.94
1015.65
1010.8
1011.83
1013.25
1015.07
1011.35
1012.4
1013.86
1015.58
1020.55
1024.06
1027.08
1029.57
1031.53
1020.78
1024.25
1027.26
1029.75
1031.71
1020.53
1024.05
1027.07
1029.56
1031.53
1020.74
1024.23
1027.24
1029.73
1031.7
1020.48
1024.02
1027.06
1029.55
1031.52
1020.58
1024.08
1027.11
1029.6
1031.57
1020.67
1024.18
1027.21
1029.71
1031.68
1020.62
1024.14
1027.18
1029.69
1031.65
1020.45
1024.01
1027.04
1029.54
1031.51
1020.64
1024.29
1027.34
1029.84
1031.8
1020.49
1024.07
1027.11
1029.61
1031.58
1020.7
1024.35
1027.4
1029.89
1031.86
1020.45
1024.01
1027.05
1029.55
1031.52
1020.67
1024.32
1027.37
1029.88
1031.84
1020.4
1023.97
1027.02
1029.53
1031.5
1020.66
1024.33
1027.39
1029.89
1031.86
1020.58
1024.15
1027.18
1029.67
1031.63
1020.86
1024.48
1027.51
1030
1031.96
1020.58
1024.15
1027.19
1029.68
1031.64
1020.85
1024.48
1027.52
1030.01
1031.97
1020.58
1024.18
1027.22
1029.72
1031.68
1020.86
1024.5
1027.54
1030.03
1031.99
1020.67
1024.31
1027.35
1029.85
1031.81
1020.91
1024.56
1027.6
1030.1
1032.06
1020.84
1024.49
1027.53
1030.03
1031.99
1035.07
1035.65
1034.81
1035.4
1034.33
1034.99
1033.74
1034.51
1033.14
1034.03
1032.2
1033.23
1032.68
1033.69
1031.73
1032.72
1031.24
1032.15
1041.38
1048.38
1054.31
1058.98
1062.24
1041.29
1048.33
1054.33
1059.03
1062.34
1041.26
1048.31
1054.27
1058.95
1062.21
1041.18
1048.29
1054.29
1059.02
1062.33
1041.03
1048.18
1054.18
1058.88
1062.16
1040.95
1048.16
1054.21
1058.96
1062.27
1040.71
1047.99
1054.06
1058.79
1062.08
1040.66
1047.99
1054.1
1058.87
1062.2
1040.34
1047.75
1053.89
1058.67
1061.97
1040.35
1047.78
1053.96
1058.77
1062.11
1039.54
1047.16
1053.45
1058.32
1061.66
1039.63
1047.26
1053.56
1058.45
1061.82
1039.94
1047.47
1053.68
1058.5
1061.83
1040.01
1047.54
1053.78
1058.63
1061.99
1039.14
1046.85
1053.21
1058.12
1061.49
1039.2
1046.93
1053.3
1058.24
1061.63
1038.73
1046.53
1052.96
1057.91
1061.3
1038.74
1046.57
1053.02
1058
1061.42
1013.04
1013.87
1014.64
1013.69
1015.09
1014.95
1014.88
1014.69
1015.14
1014.88
1016.28
1015.97
1016.91
1016.56
1016.06
1015.77
1015.74
1015.54
1015.7
1015.54
1013.72
1013.55
1016.28
1017.36
1017.73
1017.82
1016.82
1016.13
1017.36
1015.98
1018.46
1020.11
1016.33
1016.75
1018.03
1016.7
1017.24
1017.38
1015.13
1015.11
1015.84
1015.61
1015.27
1015.03
1015.36
1015.75
1017.17
1016.91
1016.36
1016.11
1014.13
1013.86
1014.39
1014.19
1014.59
1014.65
1015.44
1016.39
1015.41
1012.15
1011.37
1011.06
1011.14
1011.63
1012.37
1011.71
1011.45
1011.6
1012.21
1015.45
1015.08
1015.05
1015.39
1016.12
1016.56
1016.22
1016.22
1016.59
1017.33
1016.92
1016.56
1016.54
1016.9
1017.63
1017.02
1016.68
1016.68
1017.04
1017.78
1016
1015.63
1015.62
1015.96
1016.7
1014.4
1013.39
1012.87
1012.8
1013.16
1015.52
1014.42
1013.87
1013.8
1014.21
1014.74
1013.96
1013.57
1013.64
1014.21
1016.75
1015.69
1015.18
1015.15
1015.66
1018.43
1017.34
1016.82
1016.79
1017.3
1015.34
1014.77
1014.57
1014.77
1015.42
1015.6
1014.89
1014.56
1014.67
1015.28
1016.91
1016.23
1015.92
1016.04
1016.66
1015.77
1015.26
1015.12
1015.36
1016.04
1016.25
1015.7
1015.49
1015.7
1016.36
1016.46
1015.97
1015.84
1016.1
1016.78
1013.55
1012.69
1012.27
1012.27
1012.7
1014.01
1013.36
1013.07
1013.21
1013.82
1014.89
1014.37
1014.21
1014.45
1015.12
1014.7
1014.23
1014.11
1014.38
1015.07
1014.3
1013.76
1013.58
1013.8
1014.46
1014.11
1013.62
1013.49
1013.75
1014.43
1014.49
1014.07
1013.99
1014.3
1015.01
1014.89
1014.47
1014.4
1014.71
1015.42
1016.31
1015.9
1015.83
1016.14
1016.85
1016.07
1015.68
1015.64
1015.97
1016.7
1015.47
1015.01
1014.9
1015.18
1015.88
1015.24
1014.81
1014.73
1015.03
1015.74
1012.6
1011.8
1011.46
1011.52
1011.98
1012.75
1012.13
1011.88
1012.05
1012.67
1013.12
1012.4
1012.07
1012.15
1012.67
1013.19
1012.64
1012.45
1012.66
1013.32
1013.65
1013.14
1012.98
1013.23
1013.9
1013.57
1012.94
1012.68
1012.83
1013.45
1014.57
1014.14
1014.05
1014.35
1015.06
1015.56
1015.16
1015.12
1015.45
1016.18
1014.52
1014.06
1013.95
1014.23
1014.93
1013.46
1013.96
1013.49
1014.05
1012.34
1012.92
1012.32
1012.84
1013.53
1013.59
1014.06
1013.93
1012.35
1012.38
1012.87
1012.71
1014.65
1015.83
1015.11
1016.24
1014.65
1015.72
1015.18
1016.23
1015.19
1014.72
1014.92
1014.62
1015.55
1016.02
1014.7
1015.24
1014.43
1015.02
1013.55
1014.12
1013.19
1013.74
1015.81
1016.39
1015.44
1016.11
1016.67
1017.37
1016.93
1017.91
1017.29
1018.22
1016.85
1018
1017.31
1018.33
1016.63
1018.19
1016.94
1018.33
1017.54
1018.97
1018.36
1019.81
1013.96
1014.26
1014.19
1014.54
1012.49
1012.59
1012.74
1012.83
1015.61
1016.48
1015.39
1016.19
1014.58
1014.88
1015.08
1015.31
1013.11
1013.14
1013.57
1013.52
1016
1016.83
1016.55
1017.3
1017.1
1018.82
1018.51
1020.46
1016.95
1018.8
1018.26
1020.31
1017.49
1019.14
1018.86
1020.76
1018.07
1019.7
1019.35
1021.21
1016.99
1017.54
1018.08
1018.94
1016.9
1017.35
1018.23
1019.06
1016.73
1016.98
1018.5
1019.19
1013.9
1012.39
1015.41
1017.04
1019.15
1012.34
1013.78
1015.28
1017
1019.52
1012.47
1014.1
1016.01
1018.11
1020.33
1018.45
1018.88
1021.25
1022.1
1018.02
1018.46
1021.08
1021.93
1017.4
1017.76
1020.88
1021.73
1012.38
1012.63
1013.92
1014.21
1015.55
1015.84
1017.53
1017.91
1021.15
1022.06
1012.49
1012.75
1014.29
1014.87
1016.36
1017.09
1018.8
1019.67
1022.12
1023.23
1014.72
1015.7
1014.97
1015.98
1012.66
1012.8
1012.87
1012.95
1017.32
1018.75
1017.01
1018.37
1015.18
1016.33
1015.6
1016.83
1013.13
1013.27
1013.5
1013.67
1017.54
1019.14
1018.01
1019.71
1020.16
1022.02
1023.83
1026.18
1019.68
1021.48
1023.16
1025.37
1020.52
1022.45
1024.39
1026.82
1020.86
1022.92
1024.69
1027.07
1019.07
1019.47
1021.61
1021.7
1018.66
1019.1
1021.5
1021.56
1018.06
1018.68
1021.4
1021.5
1013.13
1013.99
1014.75
1015.57
1016.32
1017.04
1018.3
1018.99
1021.6
1021.68
1013.25
1014.19
1015.67
1016.54
1017.81
1018.49
1020
1020.35
1022.29
1022.21
1010.52
1010.49
1011.03
1010.8
1011.33
1011.29
1011.86
1011.63
1009.98
1009.6
1010.47
1010.06
1009.99
1009.63
1010.51
1010.12
1010.41
1009.97
1010.33
1010.01
1009.7
1010.12
1011.27
1011.81
1012.08
1012.62
1011.02
1011.64
1010.81
1011.36
1010.72
1011.28
1009.38
1009.26
1009.83
1009.69
1009.37
1009.22
1009.85
1009.66
1009.38
1009.17
1009.74
1009.47
1010.27
1009.94
1010.77
1010.34
1010.34
1010.32
1010.57
1010.47
1011.26
1011.25
1011.5
1011.45
1009.96
1009.83
1009.75
1009.71
1010.9
1010.71
1011.3
1011.01
1011.86
1011.73
1012.28
1012.06
1010.27
1010.03
1010.65
1010.3
1009.54
1009.28
1009.48
1009.37
1009.35
1009.17
1009.38
1009.31
1009.84
1009.51
1009.65
1009.5
1010.19
1009.78
1009.88
1009.69
1009.18
1009.26
1009.1
1009.23
1009.21
1009.3
1009.1
1009.24
1009.28
1009.36
1009.12
1009.25
1010.27
1011.17
1009.69
1009.32
1009.19
1011.18
1010.32
1009.75
1009.39
1009.28
1011.16
1010.26
1009.67
1009.37
1009.32
1009.59
1010.16
1009.62
1010.23
1009.58
1010.11
1009.59
1010.17
1009.57
1010.05
1009.54
1010.07
1011.2
1011.44
1010.33
1010.62
1009.82
1010.18
1009.52
1009.93
1009.5
1009.99
1011.12
1011.24
1010.24
1010.39
1009.71
1009.96
1009.47
1009.84
1009.51
1010
1010.21
1010.21
1010.39
1010.29
1011.13
1011.05
1011.35
1011.15
1009.84
1009.93
1009.69
1009.86
1010.68
1010.51
1010.98
1010.82
1011.66
1011.4
1012
1011.74
1010.08
1010.12
1010.34
1010.4
1009.59
1009.89
1009.67
1010.16
1009.48
1009.85
1009.57
1010.09
1009.77
1010.04
1009.83
1010.32
1010.02
1010.3
1010.02
1010.51
1010.86
1011.51
1011.12
1011.89
1010.76
1011.47
1011.05
1011.87
1010.67
1011.45
1010.94
1011.89
1011.93
1012.79
1011.16
1012.04
1010.74
1011.62
1010.55
1011.46
1010.86
1011.97
1011.65
1012.65
1010.87
1011.91
1010.55
1011.63
1010.56
1011.68
1010.96
1012.23
1009.68
1010.82
1012.7
1015.76
1010.08
1011.21
1013.12
1016.18
1009.65
1010.79
1012.66
1015.74
1010.03
1011.15
1013.04
1016.09
1009.63
1010.76
1012.54
1015.52
1009.86
1010.97
1012.78
1015.77
1010.28
1011.35
1013.2
1016.2
1010.59
1011.6
1013.42
1016.37
1009.72
1010.83
1012.57
1015.51
1009.92
1011.04
1012.62
1015.24
1009.67
1010.8
1012.46
1015.24
1009.89
1011.03
1012.58
1015.11
1009.88
1010.94
1012.73
1015.72
1010
1011.08
1012.68
1015.32
1010.07
1011.09
1012.86
1015.77
1010.12
1011.17
1012.75
1015.34
1009.56
1010.69
1012.48
1015.39
1009.74
1010.88
1012.49
1015.08
1009.58
1010.72
1012.47
1015.36
1009.78
1010.92
1012.52
1015.08
1009.64
1010.77
1012.47
1015.27
1009.83
1010.97
1012.55
1015.07
1009.76
1010.89
1012.49
1015.13
1009.89
1011.04
1012.58
1015.03
1009.92
1011.07
1012.58
1014.98
1010.17
1011.31
1012.83
1014.73
1010.74
1011.88
1013.44
1015.23
1010.17
1011.31
1012.83
1014.72
1010.74
1011.88
1013.44
1015.23
1010.17
1011.32
1012.84
1014.74
1010.74
1011.9
1013.46
1015.24
1010.18
1011.34
1012.85
1014.73
1010.75
1011.92
1013.48
1015.26
1010.2
1011.37
1012.86
1014.73
1010.77
1011.95
1013.51
1015.29
1010.36
1011.51
1012.99
1014.85
1010.88
1012.05
1013.59
1015.37
1010.27
1011.43
1012.92
1014.79
1010.8
1011.99
1013.54
1015.31
1010.49
1011.61
1013.08
1014.94
1011
1012.16
1013.68
1015.44
1010.63
1011.71
1013.17
1015
1011.17
1012.28
1013.77
1015.51
1020.26
1023.88
1026.97
1029.49
1031.47
1020.51
1024.08
1027.15
1029.68
1031.66
1020.26
1023.88
1026.97
1029.49
1031.47
1020.5
1024.08
1027.15
1029.67
1031.65
1020.25
1023.88
1026.97
1029.49
1031.47
1020.38
1023.96
1027.03
1029.55
1031.53
1020.54
1024.1
1027.16
1029.67
1031.65
1020.57
1024.11
1027.16
1029.67
1031.64
1020.27
1023.9
1026.98
1029.5
1031.47
1020.48
1024.19
1027.27
1029.79
1031.77
1020.28
1023.94
1027.03
1029.56
1031.53
1020.51
1024.23
1027.32
1029.84
1031.82
1020.32
1023.93
1027
1029.52
1031.5
1020.56
1024.25
1027.33
1029.85
1031.82
1020.35
1023.95
1027.01
1029.52
1031.49
1020.62
1024.3
1027.37
1029.88
1031.85
1020.28
1023.96
1027.06
1029.59
1031.57
1020.55
1024.29
1027.4
1029.92
1031.9
1020.29
1023.98
1027.08
1029.61
1031.58
1020.56
1024.3
1027.41
1029.93
1031.91
1020.33
1024.03
1027.12
1029.65
1031.63
1020.59
1024.34
1027.44
1029.96
1031.94
1020.44
1024.17
1027.26
1029.79
1031.77
1020.67
1024.42
1027.51
1030.03
1032.01
1020.62
1024.36
1027.45
1029.97
1031.95
1027.25
1027.92
1027.34
1028.02
1027.55
1028.25
1027.88
1028.57
1028.42
1029.01
1029.78
1030.55
1029.17
1029.84
1030.3
1031.15
1030.77
1031.64
1035.65
1044.27
1051.25
1056.55
1060.12
1035.47
1044.17
1051.25
1056.59
1060.22
1035.73
1044.33
1051.29
1056.59
1060.15
1035.58
1044.26
1051.3
1056.65
1060.26
1035.91
1044.45
1051.38
1056.65
1060.21
1035.75
1044.37
1051.38
1056.71
1060.31
1036.17
1044.63
1051.51
1056.75
1060.29
1035.99
1044.54
1051.49
1056.8
1060.39
1036.55
1044.89
1051.7
1056.9
1060.42
1036.31
1044.75
1051.65
1056.92
1060.49
1037.46
1045.52
1052.17
1057.28
1060.74
1037.3
1045.43
1052.14
1057.3
1060.81
1037
1045.19
1051.92
1057.08
1060.57
1036.76
1045.05
1051.86
1057.09
1060.64
1037.9
1045.86
1052.43
1057.48
1060.92
1037.81
1045.82
1052.44
1057.53
1061.01
1038.32
1046.2
1052.7
1057.7
1061.11
1038.29
1046.21
1052.73
1057.77
1061.22
1012.33
1013.11
1012.52
1011.71
1010.55
1011.05
1010.54
1011.1
1011.35
1011.93
1011.35
1011.85
1021.38
1021.21
1020.82
1020.2
1019.37
1018.36
1021.45
1021.3
1020.92
1020.34
1019.58
1018.68
1021.78
1022.4
1021.6
1022.19
1021.16
1021.69
1020.46
1020.88
1019.51
1019.84
1018.42
1018.77
1017.28
1016.26
1015.38
1014.66
1014.12
1013.73
1017.72
1016.8
1015.97
1015.27
1014.74
1014.37
1020.62
1020.32
1020.38
1020.78
1021.54
1020.46
1020.16
1020.21
1020.61
1021.37
1020.06
1019.76
1019.81
1020.21
1020.97
1019.44
1019.13
1019.17
1019.57
1020.33
1018.59
1018.28
1018.31
1018.7
1019.46
1017.58
1017.25
1017.27
1017.65
1018.4
1020.69
1020.4
1020.45
1020.85
1021.61
1020.54
1020.24
1020.29
1020.69
1021.45
1020.16
1019.86
1019.91
1020.3
1021.06
1019.57
1019.27
1019.31
1019.7
1020.46
1018.8
1018.49
1018.52
1018.91
1019.66
1017.9
1017.57
1017.59
1017.97
1018.71
1021.03
1020.73
1020.79
1021.19
1021.95
1021.64
1021.35
1021.4
1021.81
1022.56
1020.84
1020.55
1020.6
1021
1021.76
1021.44
1021.14
1021.19
1021.59
1022.35
1020.4
1020.1
1020.15
1020.55
1021.31
1020.93
1020.63
1020.68
1021.08
1021.84
1019.69
1019.39
1019.43
1019.83
1020.58
1020.12
1019.81
1019.85
1020.25
1021
1018.74
1018.43
1018.46
1018.85
1019.6
1019.07
1018.75
1018.78
1019.17
1019.92
1017.63
1017.31
1017.33
1017.71
1018.45
1017.98
1017.65
1017.67
1018.05
1018.79
1016.48
1016.13
1016.13
1016.5
1017.24
1015.43
1015.06
1015.03
1015.37
1016.1
1014.52
1014.1
1014.04
1014.35
1015.06
1013.74
1013.28
1013.16
1013.44
1014.13
1013.15
1012.63
1012.47
1012.71
1013.38
1012.72
1012.18
1012
1012.22
1012.88
1016.93
1016.58
1016.58
1016.94
1017.68
1015.98
1015.61
1015.58
1015.93
1016.66
1015.12
1014.72
1014.67
1014.99
1015.71
1014.39
1013.96
1013.87
1014.17
1014.87
1013.83
1013.36
1013.25
1013.52
1014.22
1013.44
1012.96
1012.83
1013.1
1013.79
1021.3
1021
1020.46
1019.7
1018.72
1017.56
1021.38
1021.08
1020.57
1019.85
1018.95
1017.92
1021.71
1022.32
1021.38
1021.96
1020.79
1021.3
1019.93
1020.33
1018.84
1019.13
1017.57
1017.85
1016.34
1015.23
1014.33
1013.72
1013.46
1013.5
1016.87
1015.89
1015.08
1014.52
1014.22
1014.19
1020.55
1020.25
1020.31
1020.71
1021.47
1020.24
1019.95
1020
1020.4
1021.16
1019.71
1019.41
1019.46
1019.86
1020.62
1018.94
1018.64
1018.68
1019.08
1019.84
1017.95
1017.64
1017.68
1018.08
1018.84
1016.79
1016.47
1016.5
1016.89
1017.64
1020.62
1020.33
1020.38
1020.78
1021.54
1020.33
1020.03
1020.08
1020.48
1021.24
1019.81
1019.51
1019.56
1019.96
1020.72
1019.08
1018.78
1018.82
1019.22
1019.98
1018.18
1017.87
1017.91
1018.3
1019.06
1017.15
1016.83
1016.86
1017.24
1018
1020.95
1020.66
1020.71
1021.12
1021.88
1021.57
1021.27
1021.33
1021.73
1022.49
1020.62
1020.33
1020.38
1020.78
1021.54
1021.2
1020.91
1020.96
1021.36
1022.12
1020.03
1019.73
1019.78
1020.19
1020.94
1020.54
1020.25
1020.3
1020.7
1021.46
1019.17
1018.87
1018.92
1019.32
1020.07
1019.57
1019.26
1019.31
1019.71
1020.47
1018.07
1017.76
1017.8
1018.2
1018.96
1018.36
1018.05
1018.09
1018.49
1019.25
1016.79
1016.47
1016.51
1016.9
1017.65
1017.08
1016.76
1016.79
1017.18
1017.94
1015.55
1015.22
1015.24
1015.62
1016.37
1014.42
1014.06
1014.06
1014.42
1015.16
1013.49
1013.1
1013.06
1013.4
1014.13
1012.83
1012.4
1012.31
1012.61
1013.32
1012.51
1012.02
1011.88
1012.15
1012.83
1012.49
1011.96
1011.79
1012.02
1012.69
1016.08
1015.74
1015.76
1016.13
1016.88
1015.08
1014.73
1014.72
1015.08
1015.82
1014.25
1013.87
1013.84
1014.18
1014.91
1013.65
1013.23
1013.17
1013.48
1014.2
1013.32
1012.87
1012.77
1013.06
1013.77
1013.26
1012.79
1012.66
1012.94
1013.63
1013.3
1013.22
1015.09
1016.35
1016.45
1016.73
1015.58
1012.61
1012.99
1012.85
1013.87
1013.83
1013.63
1014.47
1014.63
1015.12
1012.54
1012.72
1013.68
1013.76
1013.2
1013.36
1014.05
1014.23
1015.4
1015.39
1014.43
1014.42
1012.9
1012.97
1012.56
1012.94
1013.1
1012.69
1013.96
1014.99
1013.74
1011.76
1011.02
1010.74
1010.84
1011.35
1012.06
1011.42
1011.17
1011.34
1011.97
1014.29
1013.94
1013.94
1014.3
1015.05
1015.56
1015.23
1015.25
1015.63
1016.38
1015.66
1015.33
1015.34
1015.72
1016.47
1015.95
1015.62
1015.64
1016.03
1016.78
1014.78
1014.44
1014.45
1014.82
1015.57
1011.26
1010.6
1010.36
1010.5
1011.01
1011.67
1011.04
1010.83
1011
1011.56
1011.84
1011.29
1011.12
1011.34
1012.01
1012.68
1012.11
1011.95
1012.17
1012.81
1012.95
1012.52
1012.45
1012.76
1013.47
1012.68
1012.2
1012.08
1012.35
1013.04
1013.63
1013.23
1013.18
1013.51
1014.24
1013.77
1013.36
1013.3
1013.61
1014.33
1014.29
1013.9
1013.86
1014.2
1014.93
1011.2
1010.55
1010.32
1010.47
1011
1011.75
1011.24
1011.09
1011.34
1012.02
1012.81
1012.4
1012.33
1012.65
1013.37
1012.91
1012.51
1012.47
1012.8
1013.52
1012.31
1011.87
1011.79
1012.08
1012.79
1012.49
1012.07
1012
1012.31
1013.03
1013.21
1012.82
1012.79
1013.13
1013.86
1013.4
1013.03
1013.01
1013.36
1014.09
1014.58
1014.22
1014.21
1014.56
1015.3
1014.58
1014.23
1014.23
1014.6
1015.34
1013.6
1013.22
1013.19
1013.53
1014.26
1013.6
1013.22
1013.2
1013.55
1014.29
1011.45
1010.76
1010.5
1010.63
1011.15
1011.9
1011.32
1011.12
1011.33
1011.98
1011.39
1010.8
1010.58
1010.76
1011.35
1011.99
1011.5
1011.36
1011.62
1012.31
1012.2
1011.75
1011.66
1011.95
1012.66
1011.71
1011.19
1011.04
1011.28
1011.95
1013.13
1012.74
1012.71
1013.05
1013.78
1014.18
1013.82
1013.82
1014.18
1014.92
1012.89
1012.49
1012.45
1012.78
1013.5
1014.24
1013.54
1013.24
1013.32
1013.76
1014.65
1013.3
1013.35
1012.16
1012.14
1013.4
1013.51
1012.2
1012.26
1014.54
1015.85
1014.55
1015.72
1014.67
1014.6
1015.51
1013.26
1013.32
1012.11
1012.08
1013.38
1013.49
1012.16
1012.24
1014.6
1015.98
1014.61
1015.83
1014.73
1014.63
1015.6
1013.28
1013.35
1012.1
1012.06
1013.42
1013.53
1012.17
1012.26
1014.67
1016.35
1014.68
1016.14
1014.8
1014.7
1015.87
1013.53
1013.6
1012.33
1012.29
1013.68
1013.82
1012.41
1012.52
1015.01
1016.79
1015.01
1016.58
1015.12
1015.02
1016.25
1013.99
1014.05
1012.79
1012.75
1014.14
1014.31
1012.87
1012.98
1015.48
1017.15
1015.47
1016.98
1015.57
1015.49
1016.66
1014.8
1014.87
1013.64
1013.59
1014.94
1015.08
1013.71
1013.81
1016.21
1017.75
1016.2
1017.59
1016.28
1016.2
1017.28
1010.36
1010.36
1011.15
1011.15
1010.37
1010.39
1011.17
1011.21
1009.8
1009.39
1009.83
1009.45
1009.83
1009.91
1009.57
1010.3
1010.31
1011.1
1011.09
1010.34
1010.38
1011.14
1011.18
1009.72
1009.39
1009.76
1009.46
1009.8
1009.91
1009.6
1010.28
1010.3
1011.09
1011.06
1010.36
1010.42
1011.14
1011.21
1009.76
1009.57
1009.82
1009.64
1009.9
1010
1009.76
1010.51
1010.54
1011.31
1011.28
1010.61
1010.7
1011.38
1011.45
1010.05
1009.98
1010.12
1010.04
1010.22
1010.35
1010.17
1010.99
1011.02
1011.78
1011.75
1011.12
1011.23
1011.85
1011.93
1010.58
1010.58
1010.65
1010.63
1010.77
1010.92
1010.73
1011.86
1011.9
1012.64
1012.6
1011.99
1012.09
1012.71
1012.79
1011.46
1011.37
1011.53
1011.43
1011.63
1011.75
1011.53
1020.48
1020.26
1019.82
1019.47
1018.92
1018.55
1017.69
1017.4
1017.97
1017.62
1018.94
1018.59
1019.66
1019.33
1020.24
1020.01
1018.6
1018.12
1017.99
1017.32
1017.11
1016.5
1016.54
1015.77
1021.23
1022.51
1021
1022.19
1020.62
1021.84
1020.23
1021.4
1019.28
1019.98
1018.61
1019.5
1021.05
1020.3
1017.23
1016.12
1016.59
1015.77
1015.88
1014.94
1015.12
1014.41
1018.52
1017.37
1017.83
1016.96
1019.57
1018.44
1023.99
1024.9
1023.39
1024.34
1023.31
1024.46
1022.6
1023.65
1022.36
1023.9
1021.24
1022.67
1020.37
1021.79
1019.37
1020.81
1018.19
1017.97
1017.23
1017.11
1016.21
1015.94
1015.44
1015.17
1018.96
1019.2
1020.1
1020.12
1016.41
1016.4
1015.68
1015.81
1014.75
1014.53
1014.1
1013.98
1018.04
1018.44
1017.22
1017.84
1020.69
1022.41
1021.31
1023.24
1021.91
1023.67
1022.27
1024.28
1019.68
1021.36
1020.52
1022.41
1018.8
1020.45
1019.9
1021.77
1026.12
1028.08
1026.44
1028.38
1025.49
1027.32
1026.09
1027.94
1024.46
1025.87
1025.52
1027.04
1019.56
1017.22
1021.71
1023.34
1025.14
1017.57
1020.05
1022.63
1024.36
1026.3
1016.92
1019.12
1021.28
1023.34
1025.4
1029.9
1030.82
1030.86
1031.67
1028.95
1030
1030.22
1031.09
1027.33
1028.51
1029.14
1030.18
1018.14
1019.09
1020.86
1022.15
1023.39
1024.73
1025.41
1026.74
1028.13
1029.45
1017.34
1018.1
1019.81
1021.14
1022.16
1023.68
1024.51
1026.16
1027.53
1029.27
1018.62
1020.11
1017.55
1018.88
1016.18
1016.63
1015.24
1015.51
1020.04
1021.8
1021.08
1022.95
1016.66
1017.99
1016.09
1017.36
1014.48
1014.74
1013.94
1014.15
1019.1
1020.89
1018.52
1020.27
1022.9
1025.04
1026.49
1029.08
1023.74
1025.99
1027.06
1029.6
1022.13
1024.2
1025.95
1028.5
1021.41
1023.49
1025.18
1027.6
1031.14
1031.6
1032.42
1031.28
1031.51
1032.27
1030.52
1031.08
1031.95
1030.82
1031.09
1031.9
1029.29
1030.01
1030.97
1030.13
1030.51
1031.43
1020.27
1021.63
1023.1
1023.55
1024.76
1026.08
1026.04
1027.09
1028.27
1027.81
1028.71
1029.84
1029.6
1030.11
1031.17
1019.19
1020.71
1022.37
1022.95
1024.56
1026.22
1025.52
1026.96
1028.47
1027.62
1028.73
1030.07
1029.59
1030.25
1031.47
1014.48
1013.98
1014.05
1013.42
1015.66
1015.05
1015.17
1014.42
1014.33
1013.39
1014.22
1013.35
1014.02
1013.18
1013.81
1013.03
1013.12
1013.52
1012.84
1013.32
1012.98
1012.65
1012.95
1012.4
1013.85
1013.23
1012.84
1012.31
1012.45
1011.96
1012.45
1011.94
1012.43
1011.59
1012.61
1011.83
1012.28
1011.43
1012.32
1011.55
1012.14
1011.22
1011.91
1011.08
1011.74
1011.03
1011.31
1010.74
1013.35
1012.92
1012.8
1012.33
1014.58
1014.21
1013.94
1013.54
1012.01
1011.46
1012.49
1011.98
1012.27
1011.83
1011.75
1011.38
1013.34
1012.98
1012.76
1012.48
1011.55
1011.02
1011.08
1010.63
1011.36
1010.66
1010.9
1010.51
1011.74
1010.98
1011.35
1010.89
1010.98
1010.38
1010.51
1010.19
1010.57
1010.08
1010.17
1009.92
1012.48
1012.91
1011.68
1012.12
1012.45
1012.9
1011.61
1012.06
1012.4
1012.81
1011.5
1011.91
1013.76
1015.24
1012.85
1012.13
1011.36
1015.56
1014.1
1013.26
1012.54
1011.72
1014.94
1013.5
1012.48
1011.79
1011.26
1013.65
1014.66
1012.86
1013.84
1013.57
1014.54
1012.73
1013.67
1013.39
1014.31
1012.49
1013.36
1015.98
1016.77
1014.43
1015.23
1013.56
1014.38
1012.89
1013.72
1012.11
1012.94
1015.19
1015.66
1013.72
1014.19
1012.72
1013.28
1012.1
1012.77
1011.63
1012.46
1012.84
1013.01
1012.23
1012.25
1014.17
1014.31
1013.45
1013.37
1011.46
1011.68
1011.98
1012.34
1011.77
1011.67
1011.34
1011.2
1012.89
1012.7
1012.4
1012.17
1011.05
1011.16
1010.67
1010.75
1011.01
1011.45
1010.84
1011.51
1011.48
1012.04
1011.2
1011.97
1010.63
1010.97
1010.53
1011.12
1010.31
1010.62
1010.25
1010.77
1016.05
1017.44
1018.76
1015.54
1017.11
1018.44
1015.84
1017.24
1018.6
1015.3
1016.87
1018.26
1015.53
1016.9
1018.28
1014.91
1016.55
1018.03
1017.84
1019.18
1020.65
1016.32
1017.7
1019.2
1015.48
1016.92
1018.44
1014.88
1016.32
1017.79
1014.49
1016.22
1017.83
1016.51
1017.97
1019.64
1015.08
1016.55
1018.22
1014.29
1015.85
1017.56
1013.95
1015.59
1017.31
1014.08
1015.89
1017.66
1011.27
1011.88
1013.42
1016.25
1011.54
1012.19
1013.79
1016.64
1011.15
1011.79
1013.33
1016.19
1011.33
1012.02
1013.63
1016.49
1011
1011.67
1013.16
1015.93
1010.95
1011.7
1013.28
1016.11
1011.01
1011.84
1013.53
1016.43
1010.86
1011.78
1013.54
1016.45
1010.66
1011.46
1013.01
1015.81
1010.71
1011.58
1013
1015.52
1010.9
1011.62
1013.03
1015.63
1010.98
1011.76
1013.09
1015.47
1010.47
1011.35
1013.02
1015.92
1010.48
1011.42
1012.92
1015.51
1010.28
1011.23
1012.96
1015.84
1010.29
1011.28
1012.83
1015.4
1011.31
1011.85
1013.26
1015.92
1011.67
1012.14
1013.34
1015.67
1011.27
1011.84
1013.23
1015.87
1011.65
1012.14
1013.34
1015.65
1011.23
1011.83
1013.18
1015.74
1011.58
1012.12
1013.32
1015.6
1011.22
1011.87
1013.15
1015.57
1011.5
1012.1
1013.29
1015.51
1011.25
1011.96
1013.19
1015.4
1012.23
1012.63
1013.73
1015.41
1012.87
1013.23
1014.35
1015.95
1012.16
1012.6
1013.7
1015.38
1012.8
1013.2
1014.34
1015.94
1012.04
1012.53
1013.66
1015.35
1012.67
1013.14
1014.31
1015.91
1011.85
1012.43
1013.59
1015.28
1012.5
1013.05
1014.26
1015.87
1011.61
1012.3
1013.5
1015.21
1012.29
1012.95
1014.2
1015.84
1011.17
1012.06
1013.38
1015.16
1011.78
1012.66
1014.02
1015.72
1011.39
1012.18
1013.44
1015.19
1012.04
1012.81
1014.11
1015.77
1010.98
1011.94
1013.33
1015.14
1011.56
1012.53
1013.94
1015.65
1010.8
1011.83
1013.25
1015.07
1011.35
1012.4
1013.86
1015.58
1020.55
1024.06
1027.08
1029.57
1031.53
1020.79
1024.26
1027.27
1029.76
1031.72
1020.53
1024.05
1027.07
1029.56
1031.53
1020.74
1024.22
1027.24
1029.73
1031.7
1020.48
1024.02
1027.06
1029.55
1031.52
1020.58
1024.08
1027.11
1029.6
1031.57
1020.67
1024.18
1027.21
1029.71
1031.67
1020.62
1024.14
1027.18
1029.69
1031.65
1020.45
1024.01
1027.04
1029.54
1031.51
1020.64
1024.29
1027.34
1029.84
1031.8
1020.49
1024.07
1027.11
1029.61
1031.58
1020.7
1024.35
1027.4
1029.89
1031.86
1020.45
1024.01
1027.05
1029.55
1031.52
1020.67
1024.32
1027.37
1029.87
1031.84
1020.4
1023.97
1027.02
1029.53
1031.5
1020.66
1024.32
1027.39
1029.89
1031.86
1020.58
1024.14
1027.17
1029.66
1031.63
1020.86
1024.48
1027.51
1030
1031.96
1020.58
1024.15
1027.19
1029.68
1031.64
1020.85
1024.48
1027.52
1030.01
1031.97
1020.58
1024.18
1027.22
1029.72
1031.68
1020.86
1024.5
1027.54
1030.03
1031.99
1020.67
1024.31
1027.35
1029.85
1031.81
1020.91
1024.56
1027.6
1030.09
1032.06
1020.83
1024.49
1027.53
1030.03
1031.99
1035.08
1035.66
1034.81
1035.4
1034.34
1034.99
1033.74
1034.51
1033.14
1034.03
1032.2
1033.23
1032.68
1033.69
1031.73
1032.72
1031.25
1032.15
1041.39
1048.38
1054.31
1058.98
1062.24
1041.29
1048.33
1054.33
1059.03
1062.34
1041.26
1048.31
1054.27
1058.95
1062.21
1041.18
1048.29
1054.29
1059.02
1062.33
1041.03
1048.18
1054.18
1058.89
1062.16
1040.96
1048.16
1054.21
1058.96
1062.27
1040.71
1047.99
1054.06
1058.79
1062.08
1040.66
1047.99
1054.1
1058.87
1062.2
1040.34
1047.75
1053.89
1058.67
1061.97
1040.35
1047.78
1053.96
1058.77
1062.11
1039.54
1047.17
1053.45
1058.32
1061.66
1039.63
1047.26
1053.56
1058.45