/*--------------------------------*- C++ -*----------------------------------*\
  =========                 |
  \\      /  F ield         | OpenFOAM: The Open Source CFD Toolbox
   \\    /   O peration     | Website:  https://openfoam.org
    \\  /    A nd           | Version:  13
     \\/     M anipulation  |
\*---------------------------------------------------------------------------*/
FoamFile
{
    format      ascii;
    class       volScalarField;
    location    "449.831886";
    object      T;
}
// * * * * * * * * * * * * * * * * * * * * * * * * * * * * * * * * * * * * * //

dimensions      [0 0 0 1 0 0 0];

internalField   nonuniform List<scalar> 
5712
(
428.895
429.111
429.469
429.802
430.342
430.68
431.563
431.838
431.329
431.649
430.371
430.694
429.678
429.983
429.159
429.39
430.601
431.029
431.18
431.773
432.084
432.633
432.617
433.317
428.125
426.864
428.356
427.179
428.666
427.459
429.027
427.888
429.901
429.236
430.51
429.668
428.192
428.902
431.903
432.971
432.48
433.278
433.255
434.155
433.941
434.628
430.63
431.742
431.263
432.107
429.62
430.697
425.424
424.578
426.027
425.15
426.023
424.958
426.732
425.756
426.898
425.454
427.982
426.644
428.826
427.504
429.788
428.442
430.908
431.097
431.832
431.923
432.871
433.112
433.607
433.85
430.126
429.873
429.041
428.994
432.618
432.612
433.332
433.187
434.276
434.476
434.907
435.013
431.018
430.604
431.813
431.199
428.458
426.846
427.847
426.038
427.287
425.636
426.929
425.051
429.428
427.859
428.604
426.829
430.289
428.741
429.205
427.456
423.398
421.536
423.093
421.244
423.952
422.218
423.393
421.629
424.893
423.56
423.909
422.456
429.602
431.914
427.506
425.931
424.242
431.588
429.145
426.65
424.967
423.141
432.185
430.006
427.9
425.917
423.99
419.819
418.977
418.883
418.132
420.681
419.714
419.465
418.653
422.187
421.1
420.466
419.5
431.048
430.159
428.38
427.176
425.926
424.68
423.973
422.74
421.414
420.183
431.782
431.059
429.344
428.086
427.063
425.635
424.805
423.269
421.983
420.374
430.476
429.07
431.498
430.251
432.871
432.454
433.788
433.549
429.079
427.432
428.082
426.331
432.371
431.119
432.938
431.745
434.53
434.306
435.068
434.903
429.989
428.31
430.561
428.921
426.341
424.359
422.979
420.587
425.537
423.454
422.437
420.088
427.083
425.164
423.496
421.144
427.785
425.846
424.226
421.999
418.717
418.36
417.695
418.539
418.398
417.793
419.27
418.823
418.115
418.957
418.778
418.123
420.412
419.815
419.016
419.593
419.314
418.575
429.071
427.834
426.528
425.896
424.821
423.677
423.497
422.575
421.576
421.775
421.002
420.052
420.102
419.708
418.838
430.047
428.659
427.178
426.417
424.975
423.523
423.945
422.676
421.384
421.958
421.006
419.873
420.143
419.626
418.62
434.729
435.173
435.13
435.704
433.534
434.082
433.993
434.674
434.985
435.918
435.095
435.965
435.248
436.081
435.443
436.226
436.078
435.693
436.316
435.863
436.247
436.567
436.161
436.694
435.229
435.823
436.341
436.846
436.689
437.173
436.757
437.252
436.859
437.695
436.705
437.492
436.975
437.838
436.941
437.74
437.081
438.025
437.302
438.166
437.47
438.232
437.895
438.526
435.766
436.155
436.288
436.726
434.507
434.845
435.118
435.487
437.11
437.632
436.652
437.129
436.801
437.223
437.313
437.663
435.699
436.042
436.263
436.532
437.562
438.072
438.03
438.463
437.802
438.553
438.233
438.686
437.43
438.233
437.792
438.316
438.172
438.837
438.621
439.007
438.581
439.142
438.964
439.288
436.824
436.416
437.604
437.177
436.83
436.399
437.659
437.216
436.841
436.452
437.749
437.351
435.378
433.888
436.318
437.061
437.86
433.588
435.06
435.937
436.666
437.509
434.166
435.616
436.659
437.366
437.95
435.712
434.746
436.463
435.522
435.761
434.839
436.574
435.669
435.895
435.021
436.788
435.941
433.191
432.449
434.748
433.99
435.644
434.864
436.332
435.536
437.125
436.324
433.916
433.475
435.4
434.953
436.413
435.879
437.069
436.415
437.579
436.769
436.234
436.07
436.819
436.815
434.882
434.761
435.582
435.668
437.619
437.411
437.116
436.774
437.272
437.395
437.71
437.88
436.131
436.338
436.621
436.885
438.027
437.93
438.42
438.364
438.117
437.693
438.357
437.698
437.657
437.116
437.996
437.249
438.497
438.175
438.671
438.095
438.82
438.54
438.954
438.452
433.434
432.14
430.93
433.904
432.44
431.224
433.607
432.296
431.057
434.114
432.638
431.369
433.863
432.575
431.315
434.455
432.907
431.551
431.451
430.212
428.885
432.964
431.674
430.312
433.817
432.467
431.076
434.422
433.071
431.722
434.827
433.196
431.716
432.675
431.329
429.82
434.108
432.728
431.206
434.909
433.442
431.87
435.272
433.724
432.136
435.196
433.482
431.854
438.057
437.513
436.049
433.353
437.816
437.231
435.718
432.999
438.164
437.598
436.128
433.406
438.011
437.386
435.858
433.129
438.305
437.706
436.297
433.654
438.37
437.694
436.189
433.488
438.331
437.577
435.963
433.196
438.494
437.648
435.967
433.179
438.639
437.919
436.447
433.769
438.59
437.82
436.473
434.062
438.4
437.758
436.43
433.945
438.325
437.635
436.386
434.117
438.834
438.038
436.448
433.669
438.822
437.981
436.553
434.083
439.035
438.163
436.515
433.748
439.027
438.122
436.65
434.189
438.01
437.529
436.199
433.661
437.662
437.261
436.128
433.912
438.04
437.543
436.231
433.71
437.677
437.256
436.13
433.934
438.083
437.555
436.285
433.837
437.75
437.283
436.154
433.985
438.095
437.525
436.319
434.013
437.819
437.302
436.186
434.077
438.061
437.445
436.294
434.182
437.128
436.797
435.781
434.199
436.531
436.245
435.208
433.727
437.195
436.834
435.809
434.23
436.6
436.28
435.228
433.742
437.315
436.898
435.848
434.258
436.721
436.338
435.259
433.769
437.491
436.995
435.921
434.323
436.885
436.423
435.31
433.807
437.718
437.123
436.009
434.394
437.078
436.521
435.366
433.846
438.158
437.374
436.132
434.452
437.579
436.812
435.549
433.97
437.941
437.247
436.068
434.418
437.329
436.665
435.456
433.91
438.354
437.492
436.193
434.481
437.811
436.95
435.634
434.037
438.544
437.615
436.276
434.548
438.026
437.086
435.723
434.108
429.261
425.972
423.182
420.923
419.199
429.057
425.806
423.025
420.77
419.048
429.286
425.985
423.19
420.93
419.204
429.095
425.831
423.044
420.786
419.063
429.332
426.006
423.203
420.94
419.214
429.243
425.957
423.16
420.898
419.171
429.164
425.874
423.074
420.81
419.083
429.214
425.91
423.1
420.83
419.101
429.363
426.023
423.214
420.948
419.219
429.197
425.784
422.968
420.703
418.978
429.325
425.964
423.155
420.891
419.165
429.144
425.73
422.916
420.654
418.931
429.367
426.023
423.209
420.939
419.209
429.179
425.758
422.937
420.67
418.943
429.419
426.057
423.234
420.959
419.227
429.192
425.755
422.927
420.656
418.928
429.238
425.896
423.099
420.841
419.118
428.996
425.608
422.812
420.559
418.84
429.244
425.891
423.091
420.832
419.108
429.002
425.608
422.809
420.556
418.836
429.241
425.867
423.062
420.801
419.077
429.001
425.595
422.793
420.538
418.817
429.17
425.764
422.954
420.693
418.969
428.961
425.546
422.74
420.484
418.764
429.027
425.61
422.801
420.542
418.821
415.009
414.483
415.249
414.712
415.688
415.092
416.248
415.549
416.81
415.997
417.704
416.766
417.249
416.331
418.151
417.249
418.615
417.796
409.289
403.083
397.917
393.943
391.271
409.381
403.133
397.91
393.911
391.196
409.397
403.14
397.953
393.969
391.294
409.479
403.175
397.945
393.922
391.212
409.615
403.262
398.032
394.028
391.344
409.689
403.292
398.021
393.978
391.26
409.911
403.437
398.149
394.115
391.418
409.959
403.452
398.128
394.057
391.327
410.257
403.66
398.303
394.231
391.516
410.253
403.641
398.258
394.156
391.412
411.006
404.208
398.711
394.553
391.8
410.931
404.134
398.625
394.449
391.676
410.631
403.927
398.498
394.381
391.647
410.573
403.867
398.421
394.283
391.525
411.38
404.496
398.934
394.734
391.962
411.332
404.443
398.866
394.646
391.854
411.763
404.794
399.167
394.924
392.131
411.769
404.772
399.129
394.862
392.04
436.088
435.234
434.496
435.472
434.225
434.356
434.393
434.571
434.108
434.353
432.975
433.261
432.386
432.707
433.237
433.506
433.573
433.758
433.64
433.784
435.394
435.614
433.04
432.029
431.719
431.618
432.539
433.006
431.84
433.204
430.838
429.344
432.937
432.508
431.348
432.624
432.107
432.016
433.977
434.056
433.414
433.638
433.935
434.18
433.897
433.523
432.226
432.465
432.949
433.191
434.973
435.297
434.726
434.988
434.596
434.507
433.81
432.933
433.83
436.934
437.727
438.068
438.033
437.61
436.753
437.41
437.701
437.596
437.045
433.795
434.148
434.184
433.883
433.23
432.753
433.074
433.079
432.757
432.096
432.453
432.786
432.807
432.497
431.844
432.339
432.658
432.664
432.342
431.683
433.283
433.627
433.655
433.348
432.694
434.681
435.703
436.244
436.359
436.063
433.619
434.717
435.288
435.404
435.056
434.389
435.154
435.563
435.545
435.044
432.477
433.526
434.05
434.117
433.685
430.937
432.006
432.534
432.604
432.173
433.869
434.415
434.635
434.475
433.895
433.595
434.285
434.63
434.561
434.031
432.396
433.057
433.379
433.295
432.76
433.49
433.97
434.131
433.928
433.327
433.026
433.563
433.776
433.612
433.034
432.862
433.325
433.472
433.259
432.656
435.512
436.382
436.827
436.876
436.515
435.103
435.745
436.051
435.957
435.413
434.299
434.796
434.972
434.778
434.179
434.483
434.936
435.069
434.842
434.226
434.85
435.374
435.572
435.396
434.806
435.044
435.514
435.662
435.446
434.833
434.7
435.104
435.188
434.923
434.286
434.318
434.717
434.799
434.533
433.896
433.009
433.401
433.478
433.212
432.58
433.227
433.591
433.641
433.353
432.708
433.775
434.211
434.33
434.094
433.475
433.992
434.398
434.487
434.228
433.596
436.464
437.277
437.648
437.637
437.242
436.363
436.984
437.253
437.13
436.569
435.957
436.678
437.034
436.998
436.541
435.934
436.474
436.682
436.512
435.923
435.488
435.982
436.152
435.953
435.348
435.532
436.15
436.436
436.329
435.777
434.62
435.033
435.126
434.869
434.236
433.699
434.067
434.119
433.831
433.185
434.664
435.103
435.223
434.985
434.362
435.553
435.088
435.513
434.997
436.68
436.139
436.704
436.225
435.468
435.407
434.968
435.066
436.662
436.631
436.161
436.304
434.365
433.207
433.95
432.839
434.358
433.309
433.868
432.84
433.841
434.279
434.086
434.378
433.466
433.026
434.357
433.831
434.583
434.002
435.507
434.951
435.825
435.282
433.251
432.686
433.585
432.935
432.412
431.731
432.152
431.242
431.835
430.971
432.224
431.141
431.811
430.854
432.409
430.937
432.123
430.817
431.554
430.218
430.769
429.409
435.042
434.744
434.799
434.46
436.526
436.427
436.267
436.18
433.397
432.546
433.614
432.842
434.414
434.116
433.918
433.69
435.891
435.863
435.433
435.478
433.005
432.188
432.466
431.726
431.945
430.318
430.573
428.734
432.092
430.337
430.827
428.887
431.568
430.012
430.225
428.44
430.997
429.464
429.745
427.994
432.076
431.544
431.062
430.221
432.159
431.724
430.91
430.104
432.314
432.083
430.638
429.973
435.107
436.639
433.612
432.016
430.002
436.691
435.234
433.742
432.06
429.657
436.558
434.913
433.028
430.979
428.879
430.677
430.291
428.006
427.226
431.084
430.697
428.165
427.386
431.69
431.372
428.357
427.574
436.665
436.458
435.112
434.863
433.496
433.245
431.557
431.231
428.105
427.268
436.557
436.343
434.748
434.225
432.7
432.035
430.34
429.544
427.179
426.165
434.318
433.408
434.065
433.134
436.376
436.299
436.158
436.134
431.757
430.422
432.067
430.801
433.846
432.773
433.423
432.276
435.897
435.811
435.519
435.39
431.533
430.032
431.067
429.474
429.013
427.29
425.547
423.373
429.479
427.808
426.183
424.147
428.653
426.867
425.005
422.764
428.316
426.409
424.707
422.506
430.15
429.82
427.748
427.711
430.543
430.175
427.849
427.845
431.126
430.589
427.95
427.92
436.02
435.239
434.39
433.659
432.832
432.204
430.898
430.311
427.764
427.782
435.907
435.068
433.51
432.746
431.41
430.846
429.303
429.06
427.143
427.322
438.559
438.59
438.071
438.272
437.714
437.744
437.201
437.411
439.163
439.593
438.703
439.148
439.146
439.544
438.646
439.075
438.723
439.149
438.78
439.1
439.449
439.045
437.815
437.27
436.959
436.427
438.127
437.506
438.309
437.757
438.467
437.898
439.853
440.027
439.421
439.619
439.844
440.059
439.389
439.644
439.804
440.096
439.46
439.803
438.938
439.338
438.434
438.929
438.737
438.767
438.504
438.6
437.777
437.792
437.528
437.584
439.16
439.291
439.372
439.426
438.165
438.353
437.762
438.043
437.171
437.3
436.744
436.955
438.838
439.077
438.456
438.802
439.632
439.965
439.691
439.871
439.823
440.089
439.8
439.947
439.328
439.733
439.507
439.73
438.97
439.448
439.263
439.532
440.043
439.97
440.187
440.065
440.001
439.922
440.179
440.046
439.908
439.843
440.147
440.027
438.827
437.885
439.447
439.863
440.077
437.879
438.781
439.391
439.803
439.993
437.902
438.837
439.469
439.826
439.948
439.663
439.126
439.696
439.117
439.661
439.16
439.722
439.166
439.646
439.202
439.758
439.248
437.878
437.676
438.779
438.524
439.334
439.011
439.686
439.306
439.786
439.322
437.959
437.882
438.876
438.761
439.454
439.238
439.744
439.407
439.77
439.307
438.899
438.941
438.703
438.84
437.94
438.065
437.709
437.95
439.297
439.243
439.46
439.331
438.396
438.605
438.084
438.276
437.379
437.689
437.034
437.326
439.036
439.03
438.756
438.727
439.591
439.333
439.578
439.124
439.716
439.398
439.697
439.214
439.392
439.158
439.409
438.947
439.13
438.876
439.199
438.727
438.471
437.859
438.275
437.553
438.55
437.892
438.338
437.573
438.62
437.895
438.434
437.548
437.237
436.448
438.037
437.226
438.494
437.674
438.734
437.888
438.503
437.459
437.529
436.62
438.34
437.385
438.704
437.702
438.74
437.692
438.397
437.218
439.683
438.613
436.801
433.86
439.307
438.242
436.412
433.471
439.706
438.642
436.836
433.875
439.345
438.292
436.478
433.547
439.723
438.667
436.951
434.083
439.494
438.459
436.718
433.846
439.085
438.091
436.32
433.439
438.768
437.835
436.097
433.269
439.614
438.585
436.913
434.093
439.424
438.39
436.881
434.365
439.676
438.625
437.03
434.351
439.467
438.412
436.927
434.498
439.456
438.463
436.749
433.886
439.335
438.333
436.809
434.282
439.25
438.31
436.619
433.823
439.2
438.242
436.737
434.258
439.807
438.738
437.024
434.221
439.637
438.574
437.025
434.533
439.783
438.717
437.028
434.243
439.6
438.537
437.001
434.533
439.724
438.661
437.036
434.332
439.552
438.487
436.971
434.541
439.608
438.545
437.014
434.475
439.485
438.418
436.943
434.586
439.446
438.38
436.936
434.623
439.236
438.179
436.72
434.911
438.71
437.655
436.175
434.488
439.237
438.177
436.723
434.921
438.709
437.65
436.17
434.483
439.228
438.163
436.707
434.902
438.697
437.631
436.15
434.471
439.214
438.142
436.702
434.904
438.684
437.607
436.13
434.455
439.183
438.106
436.689
434.907
438.654
437.566
436.094
434.426
439.007
437.95
436.545
434.784
438.53
437.451
436.002
434.336
439.111
438.037
436.622
434.848
438.614
437.523
436.061
434.395
438.872
437.845
436.449
434.694
438.391
437.342
435.912
434.263
438.717
437.733
436.362
434.621
438.218
437.216
435.816
434.184
429.561
426.156
423.297
421.001
419.259
429.343
425.983
423.136
420.845
419.106
429.559
426.152
423.295
421
419.259
429.345
425.985
423.14
420.851
419.113
429.574
426.153
423.295
421.002
419.262
429.451
426.085
423.241
420.952
419.213
429.309
425.963
423.13
420.847
419.112
429.269
425.943
423.121
420.844
419.112
429.551
426.138
423.286
420.996
419.257
429.363
425.885
423.03
420.745
419.011
429.546
426.098
423.239
420.947
419.209
429.343
425.849
422.99
420.704
418.97
429.496
426.102
423.259
420.973
419.235
429.292
425.826
422.979
420.698
418.966
429.464
426.085
423.251
420.97
419.236
429.232
425.779
422.942
420.666
418.936
429.552
426.086
423.217
420.921
419.18
429.32
425.802
422.932
420.64
418.903
429.539
426.069
423.202
420.906
419.166
429.312
425.793
422.924
420.633
418.896
429.506
426.027
423.161
420.868
419.129
429.283
425.764
422.897
420.608
418.872
429.407
425.906
423.042
420.752
419.015
429.21
425.694
422.833
420.546
418.812
429.245
425.741
422.882
420.597
418.864
422.392
421.784
422.307
421.687
422.113
421.477
421.803
421.18
421.301
420.763
420.014
419.314
420.592
419.983
419.516
418.745
419.064
418.281
414.641
406.883
400.733
396.166
393.202
414.817
406.977
400.748
396.147
393.132
414.564
406.828
400.694
396.136
393.177
414.715
406.9
400.706
396.098
393.099
414.405
406.719
400.616
396.076
393.127
414.561
406.795
400.632
396.043
393.052
414.159
406.551
400.496
395.984
393.047
414.334
406.642
400.524
395.959
392.98
413.808
406.316
400.326
395.85
392.931
414.041
406.449
400.385
395.85
392.886
412.961
405.73
399.894
395.51
392.64
413.116
405.826
399.934
395.503
392.597
413.392
406.039
400.125
395.691
392.794
413.618
406.176
400.189
395.699
392.759
412.551
405.417
399.655
395.319
392.476
412.637
405.467
399.665
395.293
392.42
412.151
405.101
399.408
395.119
392.303
412.195
405.109
399.394
395.077
392.229
436.782
435.972
436.562
437.409
438.547
438.079
438.553
438.018
437.708
437.155
437.712
437.237
428.3
428.442
428.803
429.38
430.159
431.099
428.247
428.383
428.726
429.266
429.978
430.816
427.935
427.394
428.096
427.578
428.501
428.037
429.155
428.788
430.031
429.753
431.051
430.749
432.109
433.07
433.898
434.585
435.103
435.483
431.712
432.584
433.371
434.036
434.555
434.921
428.962
429.224
429.179
428.824
428.161
429.106
429.37
429.326
428.973
428.309
429.472
429.74
429.699
429.347
428.683
430.056
430.33
430.294
429.945
429.28
430.846
431.13
431.103
430.758
430.093
431.802
432.101
432.087
431.751
431.087
428.91
429.173
429.128
428.775
428.112
429.047
429.312
429.269
428.917
428.254
429.395
429.664
429.625
429.274
428.611
429.943
430.219
430.185
429.837
429.174
430.666
430.951
430.926
430.584
429.921
431.519
431.819
431.807
431.474
430.811
428.595
428.855
428.809
428.455
427.794
428.051
428.31
428.264
427.911
427.252
428.758
429.02
428.976
428.623
427.961
428.237
428.498
428.454
428.102
427.443
429.168
429.434
429.393
429.041
428.378
428.701
428.966
428.925
428.575
427.915
429.829
430.103
430.066
429.717
429.054
429.461
429.734
429.699
429.352
428.69
430.718
431.002
430.975
430.63
429.966
430.439
430.724
430.699
430.357
429.695
431.754
432.053
432.04
431.705
431.041
431.452
431.753
431.743
431.411
430.75
432.834
433.156
433.163
432.841
432.18
433.825
434.179
434.215
433.914
433.26
434.694
435.091
435.168
434.897
434.256
435.438
435.891
436.019
435.786
435.163
436.021
436.53
436.706
436.509
435.903
436.445
436.987
437.187
437.007
436.41
432.435
432.756
432.763
432.442
431.783
433.333
433.681
433.714
433.41
432.757
434.153
434.534
434.598
434.317
433.673
434.854
435.274
435.372
435.117
434.484
435.408
435.861
435.989
435.756
435.132
435.795
436.266
436.409
436.186
435.566
428.379
428.679
429.199
429.934
430.875
431.979
428.326
428.617
429.117
429.811
430.672
431.648
428.017
427.48
428.342
427.836
428.913
428.469
429.735
429.401
430.782
430.543
431.99
431.756
433.14
434.199
435.04
435.594
435.807
435.738
432.653
433.579
434.335
434.856
435.111
435.118
429.041
429.303
429.257
428.902
428.238
429.344
429.607
429.562
429.206
428.541
429.868
430.134
430.091
429.736
429.068
430.61
430.882
430.842
430.488
429.818
431.561
431.841
431.807
431.454
430.782
432.679
432.971
432.946
432.599
431.925
428.989
429.251
429.206
428.852
428.189
429.283
429.547
429.502
429.148
428.483
429.786
430.054
430.012
429.658
428.991
430.488
430.761
430.722
430.369
429.701
431.359
431.64
431.608
431.258
430.588
432.348
432.642
432.62
432.275
431.604
428.677
428.937
428.891
428.536
427.874
428.137
428.396
428.349
427.996
427.337
429.005
429.267
429.221
428.866
428.202
428.496
428.757
428.711
428.357
427.696
429.58
429.846
429.802
429.447
428.781
429.134
429.398
429.354
429.001
428.337
430.41
430.681
430.64
430.286
429.617
430.074
430.344
430.304
429.951
429.284
431.468
431.747
431.712
431.36
430.688
431.227
431.506
431.473
431.122
430.452
432.69
432.981
432.955
432.608
431.933
432.455
432.746
432.721
432.375
431.702
433.86
434.169
434.16
433.823
433.149
434.945
435.28
435.295
434.973
434.303
435.822
436.194
436.244
435.947
435.287
436.428
436.854
436.952
436.691
436.049
436.709
437.195
437.345
437.125
436.504
436.693
437.225
437.415
437.226
436.624
433.371
433.682
433.675
433.34
432.67
434.321
434.655
434.669
434.349
433.683
435.107
435.472
435.515
435.215
434.556
435.663
436.066
436.143
435.869
435.223
435.955
436.395
436.507
436.259
435.626
435.989
436.455
436.592
436.363
435.74
435.831
435.957
434.337
433.148
433.103
432.812
433.896
436.574
436.246
436.433
435.473
435.577
435.751
434.99
434.851
434.398
436.638
436.555
435.71
435.616
436.13
435.975
435.317
435.168
434.127
434.108
435.014
435.007
436.252
436.243
436.642
436.313
436.196
436.562
435.407
434.462
435.628
437.347
438.103
438.416
438.357
437.91
437.082
437.721
437.994
437.873
437.312
435.078
435.409
435.418
435.091
434.419
433.864
434.171
434.158
433.818
433.143
433.824
434.136
434.129
433.794
433.121
433.525
433.828
433.813
433.472
432.798
434.627
434.947
434.947
434.614
433.94
437.911
438.597
438.874
438.78
438.328
437.542
438.197
438.443
438.318
437.825
437.415
437.962
438.163
437.98
437.379
436.628
437.21
437.404
437.233
436.664
436.404
436.822
436.912
436.645
435.999
436.65
437.129
437.272
437.045
436.42
435.781
436.164
436.224
435.935
435.28
435.657
436.057
436.133
435.857
435.21
435.174
435.545
435.594
435.298
434.642
437.953
438.623
438.89
438.787
438.319
437.487
437.996
438.166
437.959
437.344
436.523
436.927
437.004
436.727
436.075
436.412
436.799
436.859
436.57
435.912
436.974
437.406
437.508
437.25
436.607
436.795
437.204
437.286
437.012
436.361
436.097
436.467
436.512
436.212
435.549
435.936
436.293
436.327
436.018
435.351
434.877
435.22
435.242
434.926
434.261
434.848
435.178
435.188
434.863
434.192
435.79
436.157
436.202
435.901
435.239
435.773
436.128
436.161
435.852
435.186
437.671
438.38
438.67
438.589
438.126
437.274
437.85
438.073
437.911
437.322
437.771
438.374
438.619
438.485
437.959
437.22
437.709
437.863
437.644
437.023
437.046
437.486
437.595
437.342
436.701
437.504
438.021
438.201
438.004
437.393
436.188
436.558
436.604
436.304
435.641
435.207
435.543
435.556
435.233
434.562
436.422
436.806
436.865
436.573
435.914
435.308
435.945
436.201
436.098
435.669
434.833
435.707
435.651
436.858
436.883
435.595
435.495
436.82
436.763
434.469
433.182
434.458
433.301
434.338
434.402
433.512
435.741
435.68
436.906
436.938
435.618
435.518
436.858
436.781
434.403
433.046
434.396
433.198
434.284
434.38
433.425
435.727
435.661
436.919
436.959
435.594
435.49
436.86
436.779
434.343
432.703
434.335
432.903
434.223
434.326
433.178
435.496
435.432
436.714
436.757
435.36
435.237
436.652
436.56
434.024
432.292
434.032
432.507
433.937
434.055
432.836
435.084
435.023
436.297
436.338
434.953
434.809
436.236
436.146
433.605
431.987
433.621
432.158
433.545
433.634
432.478
434.344
434.289
435.531
435.57
434.234
434.114
435.474
435.394
432.95
431.458
432.978
431.62
432.917
433.013
431.943
438.73
438.734
437.894
437.9
438.712
438.692
437.872
437.84
439.336
439.798
439.305
439.725
439.292
439.212
439.581
438.789
438.783
437.947
437.961
438.745
438.707
437.912
437.873
439.421
439.801
439.373
439.711
439.327
439.22
439.56
438.816
438.797
437.968
437.992
438.739
438.684
437.917
437.858
439.381
439.633
439.321
439.552
439.246
439.136
439.413
438.609
438.581
437.766
437.796
438.512
438.436
437.707
437.648
439.119
439.248
439.05
439.174
438.949
438.818
439.042
438.167
438.135
437.337
437.369
438.05
437.947
437.278
437.212
438.624
438.683
438.551
438.624
438.438
438.293
438.515
437.357
437.325
436.549
436.581
437.24
437.151
436.491
436.428
437.805
437.945
437.735
437.882
437.641
437.518
437.771
428.856
429.06
429.461
429.795
430.335
430.674
431.558
431.834
431.324
431.644
430.365
430.688
429.669
429.974
429.112
429.331
430.597
431.026
431.176
431.77
432.081
432.631
432.613
433.315
428.096
426.843
428.316
427.147
428.659
427.453
429.021
427.884
429.898
429.232
430.507
429.665
428.188
428.899
431.901
432.969
432.478
433.276
433.252
434.154
433.939
434.626
430.627
431.74
431.261
432.105
429.617
430.696
425.404
424.559
425.998
425.121
426.019
424.955
426.73
425.754
426.895
425.451
427.98
426.642
428.824
427.502
429.786
428.441
430.906
431.096
431.83
431.921
432.869
433.111
433.605
433.849
430.124
429.871
429.039
428.993
432.616
432.61
433.33
433.186
434.274
434.474
434.906
435.012
431.017
430.603
431.811
431.198
428.456
426.844
427.846
426.037
427.285
425.635
426.928
425.05
429.426
427.858
428.603
426.828
430.287
428.74
429.203
427.454
423.375
421.511
423.076
421.227
423.951
422.217
423.391
421.627
424.892
423.558
423.907
422.454
429.6
431.913
427.505
425.929
424.24
431.587
429.143
426.649
424.965
423.14
432.184
430.005
427.899
425.915
423.989
419.792
418.95
418.867
418.117
420.681
419.714
419.464
418.653
422.187
421.1
420.466
419.5
431.047
430.159
428.379
427.176
425.925
424.679
423.972
422.739
421.413
420.182
431.781
431.058
429.342
428.085
427.061
425.634
424.804
423.268
421.982
420.373
430.474
429.068
431.497
430.25
432.869
432.453
433.786
433.548
429.078
427.431
428.08
426.33
432.369
431.118
432.937
431.744
434.529
434.305
435.067
434.902
429.988
428.309
430.56
428.92
426.34
424.358
422.977
420.586
425.536
423.453
422.436
420.087
427.082
425.162
423.495
421.143
427.784
425.845
424.225
421.998
418.694
418.339
417.676
418.524
418.385
417.78
419.271
418.823
418.115
418.956
418.777
418.121
420.412
419.814
419.015
419.593
419.313
418.574
429.07
427.833
426.527
425.895
424.82
423.676
423.496
422.574
421.576
421.774
421.002
420.051
420.102
419.707
418.837
430.047
428.658
427.177
426.416
424.974
423.522
423.944
422.675
421.383
421.957
421.005
419.872
420.142
419.625
418.619
434.728
435.171
435.129
435.703
433.532
434.08
433.991
434.673
434.97
435.903
435.074
435.943
435.247
436.081
435.444
436.227
436.078
435.692
436.315
435.862
436.246
436.566
436.16
436.693
435.227
435.821
436.341
436.845
436.688
437.172
436.756
437.251
436.847
437.687
436.686
437.477
436.974
437.837
436.941
437.739
437.081
438.025
437.302
438.166
437.469
438.231
437.895
438.526
435.764
436.154
436.287
436.725
434.505
434.844
435.117
435.486
437.11
437.632
436.651
437.129
436.8
437.222
437.312
437.662
435.698
436.041
436.262
436.531
437.561
438.071
438.03
438.463
437.802
438.552
438.232
438.685
437.43
438.233
437.792
438.315
438.171
438.837
438.62
439.007
438.58
439.141
438.963
439.287
436.817
436.412
437.6
437.175
436.829
436.399
437.659
437.216
436.841
436.451
437.748
437.35
435.377
433.887
436.317
437.06
437.859
433.587
435.059
435.936
436.665
437.509
434.164
435.615
436.658
437.366
437.95
435.709
434.741
436.463
435.521
435.761
434.839
436.573
435.668
435.895
435.021
436.787
435.94
433.19
432.449
434.748
433.99
435.644
434.864
436.331
435.535
437.125
436.324
433.915
433.474
435.399
434.953
436.412
435.879
437.068
436.415
437.578
436.768
436.233
436.069
436.818
436.814
434.88
434.76
435.581
435.667
437.618
437.41
437.115
436.773
437.271
437.394
437.709
437.879
436.13
436.337
436.62
436.884
438.026
437.929
438.419
438.364
438.116
437.692
438.357
437.697
437.656
437.115
437.996
437.249
438.496
438.174
438.671
438.094
438.819
438.54
438.953
438.451
433.429
432.133
430.923
433.903
432.437
431.22
433.607
432.296
431.057
434.113
432.637
431.368
433.862
432.574
431.314
434.454
432.906
431.55
431.45
430.211
428.884
432.963
431.673
430.311
433.816
432.466
431.076
434.421
433.071
431.721
434.826
433.195
431.715
432.674
431.328
429.819
434.107
432.728
431.206
434.908
433.441
431.87
435.271
433.724
432.136
435.195
433.481
431.854
438.051
437.508
436.044
433.347
437.804
437.22
435.708
432.989
438.163
437.597
436.128
433.406
438.011
437.386
435.858
433.13
438.304
437.705
436.297
433.654
438.37
437.694
436.189
433.489
438.331
437.576
435.964
433.197
438.494
437.648
435.967
433.179
438.639
437.919
436.447
433.769
438.59
437.82
436.473
434.063
438.4
437.758
436.429
433.945
438.324
437.634
436.386
434.117
438.834
438.038
436.448
433.669
438.822
437.981
436.553
434.083
439.035
438.163
436.515
433.748
439.026
438.122
436.649
434.189
438.008
437.528
436.197
433.657
437.662
437.261
436.128
433.91
438.04
437.543
436.231
433.71
437.677
437.256
436.13
433.934
438.083
437.554
436.285
433.837
437.75
437.283
436.154
433.985
438.095
437.524
436.319
434.013
437.818
437.302
436.186
434.077
438.061
437.445
436.294
434.182
437.13
436.8
435.783
434.199
436.533
436.249
435.211
433.73
437.194
436.834
435.809
434.23
436.6
436.279
435.228
433.741
437.315
436.898
435.848
434.258
436.72
436.337
435.259
433.768
437.49
436.995
435.921
434.323
436.885
436.423
435.31
433.807
437.718
437.123
436.009
434.394
437.078
436.521
435.366
433.846
438.158
437.374
436.132
434.452
437.578
436.811
435.549
433.97
437.941
437.247
436.067
434.418
437.328
436.665
435.456
433.91
438.354
437.492
436.193
434.481
437.811
436.95
435.633
434.037
438.543
437.615
436.276
434.548
438.025
437.086
435.723
434.108
429.259
425.971
423.181
420.923
419.199
429.051
425.801
423.021
420.766
419.044
429.286
425.985
423.19
420.93
419.204
429.096
425.832
423.045
420.788
419.064
429.332
426.006
423.204
420.941
419.214
429.244
425.958
423.161
420.899
419.172
429.164
425.874
423.074
420.81
419.083
429.214
425.91
423.101
420.831
419.101
429.364
426.024
423.215
420.948
419.22
429.197
425.785
422.968
420.704
418.979
429.325
425.965
423.156
420.892
419.165
429.145
425.73
422.917
420.655
418.932
429.367
426.023
423.21
420.94
419.21
429.179
425.758
422.937
420.67
418.944
429.419
426.058
423.234
420.959
419.227
429.193
425.756
422.927
420.656
418.928
429.239
425.898
423.101
420.844
419.12
428.998
425.612
422.816
420.563
418.844
429.243
425.891
423.091
420.832
419.108
429.002
425.608
422.809
420.555
418.836
429.241
425.867
423.062
420.801
419.077
429.001
425.595
422.793
420.538
418.817
429.17
425.764
422.954
420.693
418.969
428.961
425.546
422.741
420.485
418.764
429.027
425.611
422.801
420.542
418.822
414.996
414.473
415.249
414.711
415.688
415.091
416.248
415.548
416.81
415.997
417.703
416.765
417.248
416.33
418.15
417.248
418.614
417.795
409.282
403.079
397.914
393.94
391.269
409.377
403.132
397.91
393.911
391.196
409.397
403.14
397.953
393.969
391.294
409.477
403.174
397.945
393.921
391.212
409.615
403.261
398.032
394.027
391.344
409.688
403.292
398.021
393.978
391.26
409.91
403.436
398.149
394.115
391.418
409.959
403.451
398.127
394.056
391.326
410.257
403.659
398.303
394.23
391.516
410.252
403.64
398.258
394.156
391.412
411.005
404.207
398.71
394.552
391.8