/*--------------------------------*- C++ -*----------------------------------*\
  =========                 |
  \\      /  F ield         | OpenFOAM: The Open Source CFD Toolbox
   \\    /   O peration     | Website:  https://openfoam.org
    \\  /    A nd           | Version:  13
     \\/     M anipulation  |
\*---------------------------------------------------------------------------*/
FoamFile
{
    format      ascii;
    class       volScalarField;
    location    "174.831886";
    object      T;
}
// * * * * * * * * * * * * * * * * * * * * * * * * * * * * * * * * * * * * * //

dimensions      [0 0 0 1 0 0 0];

internalField   nonuniform List<scalar> 
5712
(
1070.15
1070.02
1069.81
1069.61
1069.29
1069.09
1068.55
1068.39
1068.68
1068.5
1069.26
1069.07
1069.67
1069.5
1069.98
1069.85
1069.14
1068.89
1068.81
1068.46
1068.25
1067.93
1067.94
1067.54
1070.61
1071.38
1070.48
1071.19
1070.3
1071.03
1070.09
1070.77
1069.58
1069.97
1069.22
1069.71
1070.59
1070.18
1068.39
1067.77
1068.06
1067.6
1067.58
1067.06
1067.18
1066.79
1069.15
1068.51
1068.78
1068.3
1069.76
1069.13
1072.25
1072.76
1071.89
1072.41
1071.9
1072.54
1071.47
1072.06
1071.38
1072.25
1070.73
1071.54
1070.24
1071.03
1069.68
1070.48
1068.97
1068.86
1068.44
1068.39
1067.79
1067.65
1067.37
1067.23
1069.46
1069.63
1070.1
1070.14
1067.98
1067.99
1067.58
1067.66
1066.99
1066.87
1066.63
1066.57
1068.94
1069.2
1068.49
1068.86
1070.46
1071.43
1070.85
1071.95
1071.16
1072.16
1071.39
1072.54
1069.9
1070.84
1070.41
1071.49
1069.4
1070.32
1070.07
1071.13
1073.48
1074.61
1073.66
1074.79
1073.14
1074.19
1073.48
1074.56
1072.58
1073.38
1073.18
1074.06
1069.74
1068.33
1071.01
1071.96
1072.99
1068.52
1070
1071.51
1072.54
1073.66
1068.18
1069.5
1070.78
1071.99
1073.17
1075.65
1076.15
1076.24
1076.68
1075.12
1075.69
1075.89
1076.37
1074.21
1074.85
1075.28
1075.85
1068.83
1069.33
1070.45
1071.14
1071.94
1072.66
1073.13
1073.85
1074.72
1075.45
1068.4
1068.81
1069.88
1070.61
1071.27
1072.11
1072.66
1073.57
1074.4
1075.36
1069.23
1070.05
1068.63
1069.36
1067.77
1067.99
1067.25
1067.36
1070.1
1071.09
1070.68
1071.73
1068.13
1068.86
1067.8
1068.51
1066.82
1066.93
1066.52
1066.59
1069.57
1070.58
1069.25
1070.23
1071.78
1072.98
1073.85
1075.32
1072.24
1073.5
1074.16
1075.6
1071.34
1072.51
1073.55
1075
1070.94
1072.11
1073.12
1074.49
1076.27
1076.45
1076.85
1076.38
1076.43
1076.79
1075.93
1076.17
1076.59
1076.13
1076.2
1076.58
1075.23
1075.56
1076.03
1075.74
1075.87
1076.3
1069.95
1070.66
1071.42
1071.88
1072.49
1073.16
1073.34
1073.87
1074.45
1074.4
1074.83
1075.39
1075.44
1075.63
1076.14
1069.38
1070.17
1071.03
1071.58
1072.41
1073.26
1073.09
1073.81
1074.57
1074.31
1074.84
1075.5
1075.43
1075.69
1076.27
1066.66
1066.4
1066.43
1066.11
1067.38
1067.06
1067.12
1066.72
1066.48
1065.92
1066.42
1065.9
1066.33
1065.84
1066.22
1065.76
1065.87
1066.08
1065.74
1065.99
1065.75
1065.57
1065.85
1065.55
1066.41
1066.08
1065.72
1065.45
1065.53
1065.26
1065.47
1065.2
1065.37
1064.87
1065.46
1064.99
1065.31
1064.79
1065.33
1064.85
1065.25
1064.69
1065.14
1064.62
1065.05
1064.59
1064.82
1064.43
1066.05
1065.82
1065.76
1065.5
1066.81
1066.61
1066.46
1066.24
1065.27
1064.96
1065.52
1065.24
1065.48
1065.23
1065.19
1064.98
1066.14
1065.93
1065.82
1065.66
1065.02
1064.72
1064.76
1064.5
1064.85
1064.4
1064.6
1064.32
1065.05
1064.57
1064.84
1064.52
1064.65
1064.25
1064.39
1064.14
1064.43
1064.08
1064.2
1063.99
1065.37
1065.59
1064.92
1065.15
1065.37
1065.6
1064.89
1065.13
1065.37
1065.58
1064.84
1065.06
1066.25
1067.14
1065.69
1065.25
1064.78
1067.31
1066.43
1065.9
1065.47
1064.97
1066.98
1066.12
1065.5
1065.08
1064.73
1065.98
1066.53
1065.55
1066.08
1065.96
1066.48
1065.49
1066
1065.89
1066.38
1065.37
1065.85
1067.53
1067.95
1066.6
1067.02
1066.06
1066.5
1065.65
1066.1
1065.19
1065.64
1067.12
1067.35
1066.23
1066.47
1065.63
1065.92
1065.24
1065.6
1064.93
1065.39
1065.76
1065.83
1065.43
1065.4
1066.57
1066.61
1066.17
1066.09
1064.95
1065.05
1065.23
1065.41
1065.18
1065.08
1064.94
1064.81
1065.86
1065.71
1065.59
1065.4
1064.73
1064.76
1064.51
1064.52
1064.65
1064.87
1064.5
1064.86
1064.91
1065.2
1064.7
1065.11
1064.44
1064.6
1064.32
1064.64
1064.26
1064.4
1064.17
1064.44
1067.28
1068.02
1068.71
1067
1067.84
1068.54
1067.18
1067.93
1068.64
1066.89
1067.73
1068.46
1067.04
1067.77
1068.5
1066.69
1067.58
1068.36
1068.51
1069.22
1069.99
1067.6
1068.34
1069.12
1067.09
1067.86
1068.66
1066.72
1067.49
1068.27
1066.48
1067.41
1068.26
1067.8
1068.56
1069.43
1066.94
1067.72
1068.59
1066.46
1067.29
1068.19
1066.24
1067.12
1068.02
1066.27
1067.25
1068.18
1064.65
1064.94
1065.76
1067.3
1064.78
1065.1
1065.95
1067.5
1064.59
1064.89
1065.72
1067.27
1064.68
1065.01
1065.87
1067.43
1064.51
1064.83
1065.62
1067.13
1064.48
1064.84
1065.69
1067.22
1064.5
1064.91
1065.82
1067.39
1064.42
1064.88
1065.82
1067.41
1064.33
1064.71
1065.54
1067.06
1064.35
1064.77
1065.52
1066.89
1064.46
1064.8
1065.55
1066.96
1064.5
1064.87
1065.57
1066.86
1064.22
1064.65
1065.54
1067.12
1064.23
1064.68
1065.48
1066.88
1064.11
1064.59
1065.51
1067.08
1064.12
1064.61
1065.43
1066.83
1064.67
1064.93
1065.67
1067.12
1064.86
1065.08
1065.71
1066.97
1064.65
1064.92
1065.65
1067.09
1064.85
1065.08
1065.71
1066.96
1064.63
1064.91
1065.63
1067.02
1064.82
1065.07
1065.7
1066.93
1064.62
1064.93
1065.61
1066.92
1064.78
1065.06
1065.68
1066.88
1064.64
1064.98
1065.62
1066.82
1065.16
1065.34
1065.91
1066.8
1065.5
1065.65
1066.23
1067.07
1065.13
1065.32
1065.89
1066.79
1065.46
1065.63
1066.22
1067.07
1065.06
1065.28
1065.87
1066.77
1065.39
1065.6
1066.2
1067.05
1064.96
1065.23
1065.83
1066.74
1065.3
1065.55
1066.17
1067.03
1064.84
1065.16
1065.78
1066.7
1065.2
1065.5
1066.14
1067.01
1064.59
1065.02
1065.71
1066.67
1064.92
1065.34
1066.05
1066.94
1064.71
1065.09
1065.75
1066.69
1065.06
1065.42
1066.1
1066.97
1064.49
1064.96
1065.68
1066.65
1064.79
1065.26
1066
1066.91
1064.38
1064.89
1065.64
1066.62
1064.67
1065.19
1065.95
1066.87
1069.66
1071.58
1073.21
1074.55
1075.59
1069.78
1071.67
1073.31
1074.64
1075.68
1069.65
1071.57
1073.21
1074.55
1075.58
1069.76
1071.66
1073.3
1074.63
1075.67
1069.62
1071.56
1073.2
1074.54
1075.58
1069.67
1071.59
1073.23
1074.57
1075.6
1069.72
1071.64
1073.28
1074.62
1075.66
1069.69
1071.62
1073.26
1074.61
1075.65
1069.61
1071.55
1073.19
1074.54
1075.58
1069.7
1071.69
1073.34
1074.69
1075.72
1069.63
1071.58
1073.23
1074.57
1075.61
1069.73
1071.72
1073.37
1074.72
1075.75
1069.6
1071.55
1073.2
1074.54
1075.58
1069.71
1071.71
1073.36
1074.71
1075.74
1069.58
1071.53
1073.18
1074.53
1075.57
1069.71
1071.71
1073.37
1074.71
1075.75
1069.68
1071.62
1073.26
1074.6
1075.64
1069.82
1071.79
1073.43
1074.77
1075.81
1069.67
1071.62
1073.27
1074.61
1075.64
1069.81
1071.79
1073.44
1074.77
1075.81
1069.68
1071.64
1073.29
1074.63
1075.66
1069.82
1071.8
1073.45
1074.79
1075.82
1069.72
1071.7
1073.35
1074.69
1075.73
1069.84
1071.83
1073.48
1074.82
1075.85
1069.8
1071.79
1073.44
1074.78
1075.82
1078.69
1079.02
1078.55
1078.88
1078.29
1078.66
1077.96
1078.39
1077.63
1078.13
1077.13
1077.71
1077.39
1077.95
1076.87
1077.43
1076.6
1077.11
1082.35
1086.39
1089.79
1092.46
1094.28
1082.29
1086.35
1089.8
1092.48
1094.33
1082.29
1086.35
1089.77
1092.44
1094.27
1082.24
1086.33
1089.78
1092.47
1094.32
1082.16
1086.28
1089.72
1092.4
1094.23
1082.11
1086.26
1089.73
1092.44
1094.29
1081.99
1086.18
1089.65
1092.35
1094.19
1081.95
1086.17
1089.67
1092.39
1094.25
1081.79
1086.05
1089.56
1092.28
1094.13
1081.78
1086.06
1089.59
1092.33
1094.2
1081.35
1085.72
1089.32
1092.08
1093.95
1081.39
1085.77
1089.37
1092.15
1094.04
1081.57
1085.89
1089.44
1092.19
1094.05
1081.6
1085.92
1089.49
1092.25
1094.13
1081.13
1085.55
1089.18
1091.97
1093.85
1081.16
1085.58
1089.23
1092.03
1093.92
1080.91
1085.37
1089.04
1091.85
1093.74
1080.9
1085.39
1089.06
1091.9
1093.81
1065.9
1066.42
1066.83
1066.25
1066.93
1066.86
1066.84
1066.74
1067.02
1066.88
1067.7
1067.54
1068.04
1067.86
1067.53
1067.38
1067.32
1067.22
1067.28
1067.2
1066.25
1066.09
1067.42
1067.98
1068.17
1068.21
1067.7
1067.62
1068.29
1067.45
1068.85
1069.72
1067.56
1067.84
1068.5
1067.72
1068.03
1068.07
1067.05
1066.94
1067.27
1067.13
1066.98
1066.83
1066.96
1067.17
1067.92
1067.76
1067.52
1067.37
1066.48
1066.25
1066.59
1066.4
1066.6
1066.69
1067.01
1067.49
1067.01
1065.35
1064.87
1064.67
1064.67
1064.91
1065.42
1065.04
1064.86
1064.91
1065.22
1066.99
1066.78
1066.76
1066.93
1067.3
1067.56
1067.37
1067.37
1067.55
1067.93
1067.75
1067.55
1067.54
1067.72
1068.09
1067.8
1067.61
1067.61
1067.79
1068.17
1067.27
1067.07
1067.06
1067.23
1067.61
1066.63
1066.02
1065.69
1065.61
1065.78
1067.23
1066.58
1066.23
1066.15
1066.35
1066.76
1066.31
1066.06
1066.06
1066.34
1067.88
1067.25
1066.93
1066.88
1067.13
1068.77
1068.12
1067.8
1067.75
1067.99
1067.02
1066.69
1066.56
1066.65
1066.98
1067.2
1066.79
1066.58
1066.61
1066.91
1067.88
1067.49
1067.3
1067.34
1067.64
1067.22
1066.94
1066.84
1066.95
1067.29
1067.5
1067.18
1067.05
1067.14
1067.47
1067.57
1067.3
1067.21
1067.33
1067.67
1066.14
1065.63
1065.36
1065.32
1065.52
1066.34
1065.96
1065.77
1065.82
1066.12
1066.76
1066.47
1066.36
1066.47
1066.81
1066.64
1066.38
1066.29
1066.42
1066.77
1066.45
1066.15
1066.02
1066.12
1066.45
1066.33
1066.05
1065.96
1066.08
1066.43
1066.5
1066.26
1066.21
1066.36
1066.72
1066.71
1066.48
1066.43
1066.58
1066.94
1067.46
1067.23
1067.19
1067.34
1067.7
1067.32
1067.11
1067.08
1067.24
1067.61
1067.04
1066.79
1066.71
1066.84
1067.2
1066.9
1066.67
1066.61
1066.76
1067.12
1065.6
1065.12
1064.9
1064.89
1065.11
1065.63
1065.26
1065.1
1065.16
1065.47
1065.87
1065.45
1065.23
1065.24
1065.5
1065.85
1065.53
1065.41
1065.5
1065.83
1066.08
1065.8
1065.69
1065.8
1066.14
1066.09
1065.73
1065.55
1065.61
1065.91
1066.55
1066.31
1066.25
1066.39
1066.75
1067.05
1066.84
1066.8
1066.97
1067.34
1066.53
1066.28
1066.2
1066.33
1066.69
1066.32
1066.58
1066.34
1066.63
1065.65
1065.95
1065.63
1065.9
1066.37
1066.4
1066.65
1066.59
1065.65
1065.67
1065.93
1065.85
1067.03
1067.71
1067.26
1067.92
1067.03
1067.65
1067.3
1067.92
1067.32
1067.07
1067.18
1067.02
1067.56
1067.8
1066.99
1067.28
1066.86
1067.19
1066.3
1066.61
1066.12
1066.42
1067.65
1067.97
1067.46
1067.82
1068.15
1068.54
1068.34
1068.87
1068.51
1069.02
1068.3
1068.94
1068.53
1069.09
1068.19
1069.06
1068.34
1069.12
1068.67
1069.46
1069.11
1069.92
1066.61
1066.79
1066.75
1066.95
1065.73
1065.78
1065.87
1065.92
1067.59
1068.1
1067.47
1067.93
1066.96
1067.14
1067.24
1067.38
1066.08
1066.09
1066.34
1066.31
1067.81
1068.3
1068.11
1068.56
1068.46
1069.42
1069.29
1070.39
1068.38
1069.43
1069.14
1070.31
1068.67
1069.59
1069.48
1070.56
1068.99
1069.9
1069.76
1070.81
1068.4
1068.73
1069
1069.52
1068.35
1068.63
1069.09
1069.6
1068.26
1068.41
1069.26
1069.67
1066.58
1065.66
1067.48
1068.44
1069.65
1065.63
1066.51
1067.41
1068.42
1069.86
1065.71
1066.69
1067.83
1069.06
1070.33
1069.27
1069.49
1070.89
1071.36
1069.02
1069.24
1070.79
1071.26
1068.65
1068.83
1070.67
1071.14
1065.65
1065.76
1066.58
1066.72
1067.55
1067.7
1068.72
1068.91
1070.82
1071.32
1065.7
1065.82
1066.79
1067.1
1068.02
1068.42
1069.45
1069.93
1071.38
1071.99
1067.04
1067.57
1067.18
1067.72
1065.8
1065.83
1065.92
1065.91
1068.57
1069.37
1068.4
1069.15
1067.29
1067.92
1067.53
1068.21
1066.06
1066.08
1066.27
1066.32
1068.69
1069.59
1068.96
1069.91
1070.24
1071.28
1072.36
1073.7
1069.97
1070.98
1071.98
1073.23
1070.44
1071.53
1072.68
1074.06
1070.63
1071.79
1072.84
1074.2
1069.56
1069.75
1071.01
1071.02
1069.32
1069.53
1070.95
1070.93
1068.97
1069.27
1070.88
1070.88
1066.01
1066.45
1066.99
1067.41
1067.93
1068.29
1069.1
1069.43
1070.99
1070.95
1066.06
1066.53
1067.51
1067.94
1068.78
1069.09
1070.05
1070.17
1071.36
1071.22
1064.52
1064.5
1064.79
1064.68
1065.03
1065
1065.31
1065.19
1064.16
1063.9
1064.42
1064.15
1064.17
1063.93
1064.45
1064.19
1064.4
1064.17
1064.37
1064.19
1063.98
1064.21
1064.93
1065.23
1065.44
1065.74
1064.73
1065.08
1064.63
1064.94
1064.53
1064.84
1063.73
1063.61
1063.97
1063.84
1063.74
1063.59
1063.99
1063.82
1063.77
1063.57
1063.96
1063.73
1064.24
1063.99
1064.52
1064.21
1064.41
1064.38
1064.53
1064.47
1064.98
1064.96
1065.12
1065.08
1064.14
1064.05
1064.03
1063.98
1064.72
1064.6
1064.94
1064.77
1065.32
1065.23
1065.55
1065.42
1064.32
1064.17
1064.53
1064.32
1063.85
1063.64
1063.81
1063.68
1063.75
1063.57
1063.75
1063.64
1064.02
1063.76
1063.9
1063.75
1064.22
1063.92
1064.04
1063.86
1063.63
1063.67
1063.53
1063.6
1063.66
1063.7
1063.53
1063.61
1063.71
1063.75
1063.55
1063.62
1064.36
1064.92
1063.99
1063.73
1063.58
1064.92
1064.39
1064.02
1063.77
1063.63
1064.9
1064.35
1063.96
1063.74
1063.65
1063.85
1064.15
1063.81
1064.14
1063.85
1064.14
1063.79
1064.11
1063.86
1064.12
1063.77
1064.06
1064.92
1065.04
1064.39
1064.53
1064.05
1064.24
1063.83
1064.05
1063.75
1064.01
1064.87
1064.9
1064.32
1064.38
1063.97
1064.09
1063.79
1063.97
1063.75
1064.01
1064.29
1064.25
1064.4
1064.29
1064.87
1064.78
1064.99
1064.83
1064.04
1064.05
1063.95
1064.01
1064.56
1064.42
1064.73
1064.59
1065.17
1064.96
1065.36
1065.16
1064.18
1064.16
1064.33
1064.32
1063.85
1063.98
1063.84
1064.09
1063.79
1063.96
1063.78
1064.05
1063.95
1064.07
1063.93
1064.18
1064.1
1064.22
1064.04
1064.3
1064.53
1064.87
1064.62
1065.03
1064.48
1064.85
1064.58
1065.01
1064.44
1064.85
1064.52
1065.02
1065.28
1065.72
1064.8
1065.26
1064.53
1064.99
1064.37
1064.85
1064.48
1065.07
1065.09
1065.6
1064.61
1065.14
1064.38
1064.95
1064.35
1064.94
1064.53
1065.19
1063.77
1064.35
1065.36
1067.03
1063.98
1064.56
1065.58
1067.25
1063.76
1064.33
1065.34
1067.02
1063.96
1064.53
1065.54
1067.21
1063.75
1064.32
1065.27
1066.9
1063.87
1064.43
1065.4
1067.03
1064.1
1064.64
1065.63
1067.26
1064.27
1064.78
1065.75
1067.36
1063.8
1064.36
1065.29
1066.89
1063.91
1064.47
1065.31
1066.73
1063.77
1064.34
1065.23
1066.74
1063.89
1064.46
1065.28
1066.66
1063.89
1064.42
1065.38
1067.01
1063.95
1064.5
1065.34
1066.78
1064
1064.51
1065.45
1067.04
1064.02
1064.54
1065.38
1066.79
1063.71
1064.28
1065.23
1066.82
1063.8
1064.37
1065.23
1066.64
1063.72
1064.29
1065.23
1066.81
1063.82
1064.4
1065.25
1066.64
1063.75
1064.32
1065.23
1066.76
1063.85
1064.42
1065.26
1066.64
1063.81
1064.39
1065.24
1066.67
1063.88
1064.46
1065.28
1066.61
1063.9
1064.48
1065.28
1066.59
1064.03
1064.6
1065.4
1066.42
1064.33
1064.89
1065.71
1066.67
1064.03
1064.6
1065.4
1066.42
1064.33
1064.9
1065.72
1066.67
1064.03
1064.61
1065.41
1066.43
1064.33
1064.9
1065.73
1066.67
1064.04
1064.61
1065.41
1066.43
1064.33
1064.92
1065.74
1066.68
1064.05
1064.63
1065.42
1066.42
1064.35
1064.94
1065.75
1066.7
1064.14
1064.71
1065.49
1066.49
1064.41
1064.99
1065.8
1066.75
1064.08
1064.67
1065.45
1066.46
1064.36
1064.96
1065.77
1066.71
1064.21
1064.77
1065.55
1066.54
1064.48
1065.05
1065.85
1066.78
1064.29
1064.83
1065.59
1066.58
1064.57
1065.12
1065.9
1066.83
1069.5
1071.48
1073.15
1074.51
1075.55
1069.63
1071.58
1073.25
1074.6
1075.65
1069.5
1071.48
1073.15
1074.51
1075.55
1069.63
1071.58
1073.24
1074.6
1075.64
1069.49
1071.48
1073.15
1074.51
1075.55
1069.56
1071.52
1073.18
1074.54
1075.58
1069.64
1071.59
1073.25
1074.6
1075.64
1069.67
1071.6
1073.25
1074.6
1075.64
1069.51
1071.49
1073.16
1074.51
1075.56
1069.61
1071.64
1073.31
1074.66
1075.71
1069.51
1071.51
1073.18
1074.54
1075.59
1069.63
1071.66
1073.33
1074.69
1075.73
1069.53
1071.51
1073.17
1074.52
1075.57
1069.65
1071.67
1073.34
1074.69
1075.73
1069.55
1071.51
1073.17
1074.52
1075.57
1069.69
1071.69
1073.36
1074.71
1075.75
1069.51
1071.52
1073.2
1074.56
1075.6
1069.64
1071.69
1073.37
1074.73
1075.77
1069.51
1071.53
1073.21
1074.57
1075.61
1069.65
1071.69
1073.37
1074.73
1075.78
1069.53
1071.55
1073.23
1074.59
1075.63
1069.66
1071.71
1073.39
1074.75
1075.79
1069.59
1071.62
1073.3
1074.66
1075.7
1069.71
1071.75
1073.43
1074.79
1075.83
1069.69
1071.72
1073.4
1074.75
1075.8
1074.34
1074.72
1074.39
1074.78
1074.51
1074.9
1074.7
1075.08
1075
1075.34
1075.78
1076.21
1075.43
1075.81
1076.07
1076.55
1076.34
1076.83
1079.17
1084.1
1088.07
1091.08
1093.07
1079.06
1084.04
1088.06
1091.09
1093.12
1079.22
1084.13
1088.1
1091.09
1093.08
1079.12
1084.09
1088.09
1091.12
1093.14
1079.31
1084.2
1088.14
1091.13
1093.11
1079.22
1084.15
1088.14
1091.16
1093.17
1079.46
1084.3
1088.22
1091.19
1093.16
1079.35
1084.24
1088.2
1091.21
1093.21
1079.68
1084.45
1088.32
1091.27
1093.24
1079.53
1084.36
1088.29
1091.28
1093.27
1080.19
1084.8
1088.59
1091.49
1093.42
1080.1
1084.75
1088.57
1091.5
1093.46
1079.93
1084.61
1088.45
1091.37
1093.33
1079.79
1084.53
1088.41
1091.37
1093.35
1080.44
1084.99
1088.74
1091.61
1093.53
1080.39
1084.96
1088.74
1091.63
1093.57
1080.68
1085.19
1088.89
1091.73
1093.64
1080.65
1085.18
1088.9
1091.76
1093.69
1065.52
1066
1065.67
1065.16
1064.53
1064.79
1064.53
1064.83
1065.03
1065.34
1065.03
1065.3
1070.04
1069.96
1069.76
1069.44
1069.01
1068.49
1070.08
1070
1069.81
1069.51
1069.11
1068.65
1070.25
1070.57
1070.16
1070.46
1069.93
1070.21
1069.57
1069.79
1069.08
1069.25
1068.52
1068.7
1067.93
1067.41
1066.96
1066.6
1066.33
1066.13
1068.16
1067.68
1067.26
1066.9
1066.63
1066.43
1069.65
1069.5
1069.52
1069.73
1070.12
1069.57
1069.41
1069.44
1069.65
1070.04
1069.37
1069.21
1069.23
1069.44
1069.83
1069.04
1068.88
1068.9
1069.11
1069.5
1068.61
1068.44
1068.45
1068.65
1069.04
1068.08
1067.9
1067.91
1068.1
1068.49
1069.69
1069.53
1069.56
1069.76
1070.15
1069.61
1069.45
1069.48
1069.68
1070.07
1069.42
1069.26
1069.28
1069.49
1069.87
1069.11
1068.95
1068.97
1069.17
1069.56
1068.71
1068.55
1068.56
1068.76
1069.14
1068.24
1068.07
1068.07
1068.27
1068.65
1069.86
1069.71
1069.74
1069.94
1070.33
1070.18
1070.03
1070.05
1070.26
1070.65
1069.77
1069.62
1069.64
1069.85
1070.24
1070.08
1069.92
1069.95
1070.15
1070.54
1069.54
1069.39
1069.41
1069.62
1070.01
1069.82
1069.66
1069.68
1069.89
1070.28
1069.17
1069.01
1069.04
1069.24
1069.63
1069.39
1069.23
1069.25
1069.46
1069.84
1068.68
1068.52
1068.53
1068.73
1069.12
1068.85
1068.68
1068.7
1068.9
1069.28
1068.11
1067.93
1067.94
1068.13
1068.52
1068.29
1068.11
1068.12
1068.31
1068.69
1067.51
1067.32
1067.32
1067.5
1067.88
1066.97
1066.77
1066.74
1066.91
1067.29
1066.5
1066.27
1066.22
1066.37
1066.74
1066.11
1065.84
1065.76
1065.89
1066.24
1065.8
1065.5
1065.39
1065.5
1065.84
1065.58
1065.26
1065.14
1065.23
1065.56
1067.74
1067.55
1067.55
1067.73
1068.11
1067.25
1067.05
1067.03
1067.2
1067.57
1066.81
1066.58
1066.54
1066.7
1067.07
1066.43
1066.19
1066.12
1066.27
1066.63
1066.13
1065.87
1065.79
1065.92
1066.27
1065.93
1065.65
1065.56
1065.69
1066.03
1070
1069.83
1069.54
1069.14
1068.62
1068.01
1070.03
1069.87
1069.59
1069.21
1068.73
1068.2
1070.21
1070.52
1070.03
1070.32
1069.71
1069.97
1069.25
1069.45
1068.67
1068.82
1068
1068.15
1067.37
1066.79
1066.34
1066.05
1065.94
1065.99
1067.64
1067.14
1066.73
1066.45
1066.32
1066.32
1069.61
1069.45
1069.48
1069.69
1070.08
1069.44
1069.29
1069.31
1069.52
1069.91
1069.15
1068.99
1069.02
1069.23
1069.62
1068.74
1068.58
1068.61
1068.81
1069.2
1068.22
1068.05
1068.07
1068.28
1068.67
1067.6
1067.43
1067.44
1067.64
1068.03
1069.64
1069.49
1069.51
1069.72
1070.11
1069.48
1069.33
1069.35
1069.56
1069.95
1069.2
1069.05
1069.07
1069.28
1069.67
1068.82
1068.66
1068.68
1068.88
1069.27
1068.34
1068.17
1068.19
1068.39
1068.78
1067.79
1067.62
1067.63
1067.83
1068.22
1069.82
1069.66
1069.69
1069.9
1070.29
1070.13
1069.98
1070.01
1070.22
1070.6
1069.64
1069.48
1069.51
1069.72
1070.11
1069.93
1069.78
1069.81
1070.02
1070.41
1069.32
1069.16
1069.19
1069.4
1069.79
1069.58
1069.43
1069.45
1069.66
1070.05
1068.86
1068.7
1068.72
1068.93
1069.32
1069.06
1068.9
1068.92
1069.13
1069.52
1068.27
1068.11
1068.13
1068.34
1068.73
1068.42
1068.26
1068.28
1068.48
1068.87
1067.6
1067.43
1067.44
1067.64
1068.03
1067.74
1067.57
1067.59
1067.79
1068.17
1066.95
1066.77
1066.78
1066.97
1067.36
1066.36
1066.17
1066.16
1066.34
1066.72
1065.89
1065.67
1065.64
1065.81
1066.18
1065.57
1065.32
1065.26
1065.4
1065.76
1065.42
1065.14
1065.05
1065.17
1065.51
1065.44
1065.13
1065.01
1065.11
1065.45
1067.23
1067.05
1067.05
1067.24
1067.63
1066.71
1066.52
1066.51
1066.69
1067.07
1066.29
1066.07
1066.05
1066.21
1066.59
1065.99
1065.76
1065.71
1065.86
1066.22
1065.84
1065.58
1065.51
1065.65
1066
1065.82
1065.55
1065.46
1065.59
1065.94
1066.01
1065.9
1066.71
1067.36
1067.41
1067.56
1066.96
1065.62
1065.81
1065.65
1066.24
1066.09
1066.02
1066.41
1066.5
1066.74
1065.57
1065.56
1066
1066.04
1065.77
1065.84
1066.18
1066.27
1066.87
1066.86
1066.38
1066.37
1065.77
1065.73
1065.53
1065.67
1065.72
1065.55
1066.14
1066.65
1066.03
1065.12
1064.67
1064.48
1064.5
1064.75
1065.24
1064.87
1064.7
1064.76
1065.07
1066.29
1066.1
1066.09
1066.27
1066.66
1066.95
1066.77
1066.78
1066.97
1067.36
1067
1066.82
1066.82
1067.01
1067.39
1067.15
1066.97
1066.98
1067.18
1067.56
1066.54
1066.36
1066.35
1066.54
1066.93
1064.84
1064.43
1064.26
1064.3
1064.54
1065.05
1064.66
1064.51
1064.56
1064.84
1065.09
1064.76
1064.64
1064.73
1065.07
1065.56
1065.21
1065.09
1065.17
1065.49
1065.61
1065.37
1065.31
1065.46
1065.82
1065.5
1065.22
1065.13
1065.25
1065.6
1065.95
1065.73
1065.69
1065.85
1066.22
1066.03
1065.8
1065.75
1065.9
1066.27
1066.29
1066.07
1066.04
1066.21
1066.58
1064.8
1064.4
1064.23
1064.28
1064.54
1065.02
1064.72
1064.62
1064.73
1065.07
1065.53
1065.3
1065.25
1065.4
1065.77
1065.58
1065.36
1065.32
1065.48
1065.85
1065.29
1065.03
1064.97
1065.11
1065.47
1065.37
1065.13
1065.08
1065.23
1065.6
1065.74
1065.52
1065.49
1065.66
1066.03
1065.83
1065.62
1065.6
1065.77
1066.15
1066.43
1066.23
1066.22
1066.4
1066.78
1066.43
1066.24
1066.23
1066.42
1066.8
1065.93
1065.72
1065.69
1065.86
1066.23
1065.93
1065.72
1065.7
1065.87
1066.25
1064.94
1064.52
1064.34
1064.37
1064.63
1065.13
1064.79
1064.65
1064.74
1065.07
1064.88
1064.52
1064.37
1064.43
1064.73
1065.15
1064.86
1064.77
1064.88
1065.23
1065.23
1064.98
1064.91
1065.05
1065.41
1065.01
1064.7
1064.59
1064.7
1065.04
1065.69
1065.48
1065.45
1065.61
1065.99
1066.23
1066.03
1066.02
1066.2
1066.59
1065.57
1065.35
1065.31
1065.47
1065.84
1066.22
1065.87
1065.73
1065.79
1066.04
1066.53
1066.24
1066.27
1065.55
1065.54
1066.3
1066.35
1065.57
1065.6
1066.97
1067.74
1066.98
1067.67
1067.05
1067.01
1067.54
1066.22
1066.25
1065.52
1065.51
1066.29
1066.34
1065.55
1065.59
1067.02
1067.83
1067.02
1067.74
1067.09
1067.03
1067.6
1066.23
1066.27
1065.52
1065.5
1066.3
1066.36
1065.55
1065.59
1067.06
1068.04
1067.06
1067.92
1067.13
1067.06
1067.75
1066.37
1066.4
1065.64
1065.62
1066.44
1066.51
1065.67
1065.71
1067.25
1068.29
1067.24
1068.16
1067.29
1067.22
1067.95
1066.61
1066.64
1065.88
1065.85
1066.67
1066.75
1065.9
1065.95
1067.49
1068.46
1067.48
1068.35
1067.52
1067.46
1068.16
1067.03
1067.06
1066.31
1066.29
1067.08
1067.14
1066.34
1066.37
1067.86
1068.76
1067.84
1068.66
1067.87
1067.81
1068.46
1064.43
1064.43
1064.93
1064.93
1064.44
1064.44
1064.94
1064.95
1064.07
1063.79
1064.08
1063.83
1064.09
1064.13
1063.91
1064.4
1064.4
1064.9
1064.9
1064.42
1064.44
1064.92
1064.93
1064.02
1063.79
1064.05
1063.84
1064.07
1064.13
1063.93
1064.39
1064.4
1064.89
1064.88
1064.42
1064.45
1064.92
1064.94
1064.05
1063.88
1064.08
1063.93
1064.12
1064.18
1064.01
1064.51
1064.52
1065.01
1064.99
1064.55
1064.59
1065.04
1065.06
1064.2
1064.1
1064.23
1064.15
1064.29
1064.36
1064.22
1064.76
1064.77
1065.25
1065.24
1064.82
1064.87
1065.28
1065.31
1064.47
1064.42
1064.52
1064.46
1064.58
1064.66
1064.52
1065.21
1065.23
1065.7
1065.68
1065.27
1065.31
1065.72
1065.75
1064.94
1064.84
1064.98
1064.88
1065.02
1065.09
1064.94
1070.17
1070.05
1069.81
1069.62
1069.29
1069.1
1068.55
1068.4
1068.68
1068.5
1069.26
1069.08
1069.68
1069.5
1070.01
1069.88
1069.14
1068.9
1068.81
1068.47
1068.25
1067.93
1067.95
1067.54
1070.63
1071.39
1070.5
1071.21
1070.3
1071.03
1070.09
1070.78
1069.58
1069.97
1069.22
1069.71
1070.6
1070.18
1068.39
1067.77
1068.06
1067.6
1067.58
1067.06
1067.18
1066.79
1069.15
1068.51
1068.78
1068.3
1069.76
1069.13
1072.26
1072.77
1071.9
1072.43
1071.9
1072.54
1071.47
1072.06
1071.38
1072.25
1070.74
1071.54
1070.24
1071.03
1069.68
1070.49
1068.97
1068.86
1068.44
1068.39
1067.79
1067.65
1067.37
1067.23
1069.46
1069.63
1070.1
1070.14
1067.98
1067.99
1067.58
1067.67
1066.99
1066.87
1066.63
1066.57
1068.94
1069.2
1068.49
1068.86
1070.46
1071.44
1070.86
1071.95
1071.16
1072.16
1071.39
1072.54
1069.9
1070.84
1070.41
1071.49
1069.4
1070.32
1070.07
1071.13
1073.49
1074.62
1073.67
1074.8
1073.15
1074.19
1073.49
1074.56
1072.58
1073.38
1073.18
1074.06
1069.74
1068.33
1071.01
1071.97
1073
1068.52
1070
1071.51
1072.54
1073.66
1068.18
1069.5
1070.78
1071.99
1073.17
1075.67
1076.16
1076.25
1076.69
1075.12
1075.69
1075.89
1076.37
1074.21
1074.85
1075.28
1075.85
1068.83
1069.33
1070.45
1071.14
1071.94
1072.66
1073.13
1073.85
1074.72
1075.45
1068.4
1068.81
1069.88
1070.61
1071.27
1072.11
1072.66
1073.57
1074.4
1075.37
1069.23
1070.05
1068.63
1069.36
1067.77
1067.99
1067.25
1067.36
1070.1
1071.09
1070.68
1071.73
1068.13
1068.86
1067.81
1068.51
1066.82
1066.93
1066.52
1066.59
1069.57
1070.58
1069.25
1070.23
1071.78
1072.98
1073.85
1075.32
1072.24
1073.5
1074.16
1075.6
1071.34
1072.51
1073.55
1075
1070.94
1072.11
1073.12
1074.49
1076.28
1076.47
1076.86
1076.39
1076.44
1076.79
1075.93
1076.17
1076.59
1076.13
1076.2
1076.58
1075.23
1075.56
1076.03
1075.74
1075.87
1076.3
1069.95
1070.66
1071.42
1071.88
1072.49
1073.16
1073.34
1073.87
1074.45
1074.4
1074.83
1075.39
1075.44
1075.63
1076.14
1069.38
1070.17
1071.03
1071.58
1072.41
1073.26
1073.09
1073.82
1074.57
1074.31
1074.84
1075.5
1075.43
1075.69
1076.27
1066.66
1066.4
1066.43
1066.11
1067.38
1067.06
1067.12
1066.73
1066.49
1065.93
1066.43
1065.91
1066.33
1065.84
1066.22
1065.76
1065.87
1066.08
1065.74
1065.99
1065.75
1065.57
1065.85
1065.55
1066.41
1066.08
1065.72
1065.45
1065.53
1065.26
1065.47
1065.2
1065.37
1064.88
1065.47
1065
1065.31
1064.79
1065.33
1064.85
1065.25
1064.69
1065.14
1064.62
1065.05
1064.59
1064.82
1064.43
1066.05
1065.82
1065.76
1065.5
1066.81
1066.61
1066.46
1066.24
1065.27
1064.96
1065.52
1065.24
1065.48
1065.23
1065.19
1064.98
1066.14
1065.93
1065.82
1065.66
1065.02
1064.72
1064.76
1064.5
1064.85
1064.4
1064.6
1064.32
1065.05
1064.57
1064.84
1064.52
1064.65
1064.25
1064.39
1064.14
1064.43
1064.08
1064.2
1063.99
1065.37
1065.59
1064.92
1065.15
1065.37
1065.6
1064.89
1065.13
1065.37
1065.58
1064.84
1065.06
1066.25
1067.14
1065.69
1065.25
1064.78
1067.31
1066.43
1065.9
1065.47
1064.97
1066.98
1066.12
1065.5
1065.08
1064.73
1065.98
1066.53
1065.55
1066.08
1065.96
1066.48
1065.49
1066
1065.89
1066.38
1065.37
1065.85
1067.53
1067.95
1066.6
1067.02
1066.06
1066.5
1065.65
1066.1
1065.19
1065.64
1067.12
1067.35
1066.23
1066.47
1065.63
1065.92
1065.24
1065.6
1064.93
1065.39
1065.76
1065.83
1065.43
1065.4
1066.57
1066.61
1066.17
1066.09
1064.95
1065.05
1065.23
1065.41
1065.18
1065.08
1064.94
1064.81
1065.86
1065.71
1065.59
1065.4
1064.73
1064.76
1064.51
1064.52
1064.65
1064.87
1064.5
1064.86
1064.91
1065.2
1064.7
1065.11
1064.44
1064.6
1064.32
1064.64
1064.26
1064.4
1064.17
1064.44
1067.28
1068.02
1068.72
1067.01
1067.84
1068.54
1067.18
1067.93
1068.64
1066.89
1067.73
1068.46
1067.04
1067.77
1068.5
1066.69
1067.58
1068.36
1068.51
1069.22
1069.99
1067.6
1068.34
1069.12
1067.09
1067.86
1068.66
1066.72
1067.49
1068.27
1066.48
1067.41
1068.26
1067.8
1068.56
1069.43
1066.94
1067.72
1068.59
1066.46
1067.29
1068.19
1066.24
1067.12
1068.03
1066.27
1067.25
1068.18
1064.65
1064.94
1065.76
1067.3
1064.79
1065.1
1065.96
1067.51
1064.59
1064.89
1065.72
1067.27
1064.68
1065.01
1065.87
1067.43
1064.51
1064.83
1065.62
1067.13
1064.48
1064.84
1065.68
1067.22
1064.5
1064.91
1065.82
1067.39
1064.42
1064.88
1065.82
1067.41
1064.33
1064.71
1065.54
1067.06
1064.35
1064.77
1065.52
1066.89
1064.46
1064.8
1065.55
1066.96
1064.5
1064.87
1065.57
1066.86
1064.22
1064.65
1065.54
1067.12
1064.23
1064.68
1065.48
1066.88
1064.11
1064.59
1065.51
1067.08
1064.12
1064.61
1065.43
1066.83
1064.67
1064.93
1065.67
1067.12
1064.86
1065.08
1065.71
1066.98
1064.65
1064.92
1065.65
1067.09
1064.86
1065.08
1065.71
1066.96
1064.63
1064.91
1065.63
1067.02
1064.82
1065.07
1065.7
1066.93
1064.62
1064.93
1065.61
1066.92
1064.78
1065.06
1065.68
1066.88
1064.64
1064.98
1065.62
1066.82
1065.16
1065.34
1065.9
1066.8
1065.5
1065.65
1066.23
1067.07
1065.13
1065.32
1065.89
1066.79
1065.46
1065.63
1066.22
1067.07
1065.06
1065.28
1065.87
1066.77
1065.39
1065.6
1066.2
1067.05
1064.96
1065.23
1065.83
1066.74
1065.3
1065.55
1066.17
1067.03
1064.84
1065.16
1065.78
1066.7
1065.2
1065.5
1066.14
1067.01
1064.59
1065.02
1065.71
1066.67
1064.92
1065.34
1066.05
1066.94
1064.71
1065.09
1065.75
1066.69
1065.06
1065.42
1066.1
1066.97
1064.49
1064.96
1065.68
1066.65
1064.79
1065.26
1066
1066.91
1064.38
1064.89
1065.64
1066.62
1064.67
1065.19
1065.95
1066.87
1069.66
1071.58
1073.21
1074.55
1075.59
1069.78
1071.68
1073.31
1074.65
1075.68
1069.65
1071.57
1073.21
1074.55
1075.58
1069.76
1071.66
1073.3
1074.63
1075.67
1069.62
1071.56
1073.2
1074.54
1075.58
1069.67
1071.59
1073.23
1074.57
1075.6
1069.72
1071.64
1073.28
1074.62
1075.66
1069.69
1071.62
1073.26
1074.61
1075.65
1069.61
1071.55
1073.19
1074.54
1075.58
1069.7
1071.69
1073.34
1074.69
1075.72
1069.63
1071.58
1073.23
1074.57
1075.61
1069.73
1071.72
1073.37
1074.72
1075.75
1069.6
1071.55
1073.2
1074.54
1075.58
1069.71
1071.7
1073.36
1074.71
1075.74
1069.58
1071.53
1073.18
1074.53
1075.57
1069.71
1071.71
1073.37
1074.71
1075.75
1069.67
1071.62
1073.26
1074.6
1075.64
1069.82
1071.79
1073.43
1074.77
1075.81
1069.67
1071.62
1073.27
1074.61
1075.64
1069.81
1071.79
1073.44
1074.77
1075.81
1069.68
1071.64
1073.28
1074.63
1075.66
1069.82
1071.8
1073.45
1074.79
1075.82
1069.72
1071.7
1073.35
1074.69
1075.73
1069.84
1071.83
1073.48
1074.82
1075.85
1069.8
1071.79
1073.44
1074.78
1075.82
1078.7
1079.02
1078.55
1078.88
1078.29
1078.66
1077.96
1078.39
1077.63
1078.13
1077.13
1077.71
1077.39
1077.96
1076.87
1077.43
1076.6
1077.11
1082.36
1086.39
1089.8
1092.46
1094.28
1082.3
1086.36
1089.8
1092.48
1094.33
1082.29
1086.35
1089.77
1092.44
1094.27
1082.24
1086.33
1089.78
1092.47
1094.32
1082.16
1086.28
1089.72
1092.4
1094.23
1082.11
1086.26
1089.73
1092.44
1094.29
1081.99
1086.18
1089.65
1092.35
1094.19
1081.95
1086.17
1089.67
1092.39
1094.25
1081.79
1086.05
1089.56
1092.28
1094.13
1081.78
1086.06
1089.59
1092.33
1094.2
1081.35
1085.72
1089.32
1092.08