/*--------------------------------*- C++ -*----------------------------------*\
  =========                 |
  \\      /  F ield         | OpenFOAM: The Open Source CFD Toolbox
   \\    /   O peration     | Website:  https://openfoam.org
    \\  /    A nd           | Version:  13
     \\/     M anipulation  |
\*---------------------------------------------------------------------------*/
FoamFile
{
    format      ascii;
    class       volScalarField;
    location    "219.831886";
    object      T;
}
// * * * * * * * * * * * * * * * * * * * * * * * * * * * * * * * * * * * * * //

dimensions      [0 0 0 1 0 0 0];

internalField   nonuniform List<scalar> 
5712
(
1139.23
1139.13
1138.96
1138.81
1138.56
1138.4
1137.99
1137.86
1138.1
1137.95
1138.54
1138.39
1138.87
1138.73
1139.11
1139
1138.43
1138.23
1138.16
1137.89
1137.74
1137.48
1137.49
1137.17
1139.59
1140.18
1139.48
1140.04
1139.34
1139.9
1139.17
1139.7
1138.76
1139.07
1138.48
1138.87
1139.56
1139.23
1137.83
1137.34
1137.56
1137.19
1137.2
1136.78
1136.88
1136.56
1138.42
1137.91
1138.13
1137.74
1138.9
1138.4
1140.86
1141.26
1140.58
1140.99
1140.58
1141.08
1140.25
1140.71
1140.17
1140.85
1139.66
1140.29
1139.27
1139.89
1138.82
1139.46
1138.29
1138.2
1137.86
1137.82
1137.37
1137.25
1137.03
1136.91
1138.66
1138.78
1139.16
1139.18
1137.49
1137.5
1137.17
1137.23
1136.72
1136.63
1136.43
1136.38
1138.24
1138.44
1137.88
1138.17
1139.44
1140.2
1139.73
1140.59
1139.98
1140.76
1140.16
1141.05
1138.99
1139.73
1139.38
1140.22
1138.59
1139.32
1139.1
1139.93
1141.81
1142.69
1141.96
1142.83
1141.55
1142.37
1141.82
1142.65
1141.11
1141.73
1141.57
1142.26
1138.89
1137.81
1139.88
1140.62
1141.42
1137.96
1139.11
1140.28
1141.07
1141.94
1137.68
1138.7
1139.69
1140.63
1141.54
1143.5
1143.89
1143.95
1144.3
1143.09
1143.54
1143.67
1144.05
1142.38
1142.89
1143.2
1143.65
1138.21
1138.62
1139.46
1140.02
1140.62
1141.2
1141.54
1142.11
1142.75
1143.33
1137.87
1138.2
1139.01
1139.6
1140.08
1140.75
1141.15
1141.87
1142.49
1143.25
1138.49
1139.14
1138.01
1138.6
1137.36
1137.55
1136.94
1137.04
1139.15
1139.93
1139.61
1140.44
1137.61
1138.2
1137.35
1137.91
1136.6
1136.7
1136.35
1136.43
1138.73
1139.52
1138.47
1139.24
1140.44
1141.38
1142.04
1143.18
1140.82
1141.8
1142.29
1143.41
1140.1
1141.01
1141.8
1142.92
1139.78
1140.69
1141.46
1142.52
1144.01
1144.18
1144.5
1144.09
1144.16
1144.45
1143.75
1143.96
1144.3
1143.9
1143.98
1144.29
1143.21
1143.49
1143.87
1143.6
1143.72
1144.08
1139.13
1139.7
1140.32
1140.62
1141.12
1141.67
1141.75
1142.18
1142.66
1142.56
1142.92
1143.38
1143.36
1143.54
1143.95
1138.67
1139.32
1140.01
1140.37
1141.05
1141.74
1141.54
1142.13
1142.75
1142.48
1142.92
1143.46
1143.35
1143.58
1144.06
1136.51
1136.3
1136.33
1136.06
1137.07
1136.81
1136.85
1136.54
1136.39
1135.96
1136.34
1135.94
1136.27
1135.88
1136.18
1135.82
1135.89
1136.06
1135.77
1135.98
1135.81
1135.66
1135.85
1135.61
1136.28
1136.01
1135.77
1135.54
1135.6
1135.38
1135.57
1135.35
1135.52
1135.14
1135.59
1135.23
1135.47
1135.07
1135.49
1135.12
1135.42
1134.98
1135.32
1134.92
1135.24
1134.89
1135.05
1134.76
1136.02
1135.84
1135.78
1135.58
1136.61
1136.45
1136.33
1136.15
1135.4
1135.16
1135.61
1135.39
1135.55
1135.35
1135.32
1135.15
1136.06
1135.9
1135.8
1135.68
1135.2
1134.96
1134.99
1134.78
1135.09
1134.74
1134.88
1134.68
1135.25
1134.89
1135.08
1134.85
1134.92
1134.61
1134.71
1134.53
1134.73
1134.48
1134.55
1134.41
1135.53
1135.72
1135.18
1135.37
1135.53
1135.73
1135.15
1135.35
1135.52
1135.7
1135.11
1135.29
1136.2
1136.89
1135.76
1135.42
1135.05
1137.03
1136.34
1135.94
1135.6
1135.21
1136.76
1136.09
1135.6
1135.28
1135.01
1136.04
1136.49
1135.7
1136.13
1136.02
1136.44
1135.64
1136.06
1135.96
1136.36
1135.54
1135.93
1137.21
1137.55
1136.48
1136.83
1136.07
1136.43
1135.75
1136.12
1135.39
1135.75
1136.87
1137.07
1136.18
1136.38
1135.71
1135.96
1135.41
1135.71
1135.18
1135.55
1135.8
1135.87
1135.53
1135.52
1136.43
1136.47
1136.1
1136.06
1135.16
1135.25
1135.39
1135.54
1135.32
1135.26
1135.13
1135.04
1135.85
1135.75
1135.63
1135.5
1134.98
1135.01
1134.8
1134.82
1134.93
1135.12
1134.82
1135.12
1135.14
1135.39
1134.99
1135.33
1134.76
1134.9
1134.68
1134.94
1134.61
1134.74
1134.56
1134.78
1137.09
1137.69
1138.26
1136.87
1137.55
1138.12
1137.01
1137.62
1138.2
1136.77
1137.46
1138.05
1136.89
1137.49
1138.07
1136.62
1137.33
1137.96
1138.01
1138.59
1139.21
1137.31
1137.9
1138.54
1136.91
1137.53
1138.18
1136.63
1137.25
1137.88
1136.44
1137.19
1137.88
1137.44
1138.06
1138.77
1136.77
1137.41
1138.12
1136.4
1137.08
1137.81
1136.23
1136.95
1137.68
1136.27
1137.06
1137.82
1134.97
1135.23
1135.9
1137.16
1135.08
1135.36
1136.06
1137.32
1134.92
1135.19
1135.87
1137.13
1135
1135.29
1135.99
1137.26
1134.86
1135.14
1135.79
1137.02
1134.83
1135.14
1135.84
1137.1
1134.85
1135.2
1135.95
1137.23
1134.78
1135.17
1135.95
1137.24
1134.71
1135.04
1135.72
1136.97
1134.73
1135.09
1135.71
1136.83
1134.81
1135.11
1135.73
1136.88
1134.85
1135.17
1135.75
1136.8
1134.62
1134.99
1135.72
1137.01
1134.62
1135.02
1135.68
1136.82
1134.53
1134.93
1135.7
1136.98
1134.53
1134.95
1135.63
1136.77
1134.99
1135.22
1135.83
1137.01
1135.15
1135.34
1135.87
1136.9
1134.98
1135.21
1135.82
1136.99
1135.14
1135.34
1135.87
1136.89
1134.96
1135.21
1135.8
1136.93
1135.11
1135.33
1135.86
1136.86
1134.95
1135.22
1135.78
1136.85
1135.08
1135.32
1135.84
1136.82
1134.97
1135.26
1135.79
1136.77
1135.4
1135.55
1136.03
1136.76
1135.67
1135.81
1136.29
1136.98
1135.37
1135.54
1136.01
1136.75
1135.64
1135.79
1136.28
1136.98
1135.31
1135.51
1136
1136.74
1135.58
1135.77
1136.27
1136.96
1135.23
1135.46
1135.96
1136.71
1135.51
1135.73
1136.25
1136.95
1135.13
1135.41
1135.92
1136.67
1135.42
1135.68
1136.22
1136.93
1134.93
1135.29
1135.87
1136.65
1135.19
1135.55
1136.14
1136.87
1135.02
1135.35
1135.9
1136.66
1135.31
1135.62
1136.18
1136.9
1134.84
1135.24
1135.84
1136.64
1135.09
1135.49
1136.1
1136.84
1134.75
1135.19
1135.81
1136.61
1134.99
1135.43
1136.06
1136.81
1139.06
1140.6
1141.91
1142.98
1143.8
1139.16
1140.68
1141.99
1143.05
1143.88
1139.05
1140.6
1141.91
1142.98
1143.8
1139.14
1140.67
1141.98
1143.05
1143.87
1139.03
1140.59
1141.9
1142.97
1143.8
1139.07
1140.61
1141.92
1142.99
1143.82
1139.11
1140.65
1141.96
1143.04
1143.86
1139.09
1140.63
1141.95
1143.03
1143.85
1139.02
1140.58
1141.9
1142.97
1143.79
1139.1
1140.69
1142.02
1143.09
1143.91
1139.03
1140.61
1141.93
1143
1143.82
1139.12
1140.72
1142.04
1143.11
1143.93
1139.02
1140.58
1141.9
1142.97
1143.8
1139.11
1140.7
1142.03
1143.1
1143.93
1138.99
1140.56
1141.89
1142.96
1143.79
1139.1
1140.71
1142.04
1143.11
1143.93
1139.07
1140.64
1141.95
1143.02
1143.84
1139.19
1140.77
1142.09
1143.16
1143.98
1139.07
1140.64
1141.96
1143.02
1143.85
1139.19
1140.77
1142.09
1143.16
1143.98
1139.07
1140.65
1141.97
1143.04
1143.86
1139.19
1140.78
1142.1
1143.17
1143.99
1139.11
1140.7
1142.02
1143.09
1143.92
1139.21
1140.81
1142.12
1143.19
1144.01
1139.18
1140.77
1142.1
1143.16
1143.99
1145.81
1146.06
1145.7
1145.95
1145.49
1145.78
1145.23
1145.56
1144.97
1145.36
1144.56
1145.01
1144.77
1145.21
1144.36
1144.79
1144.14
1144.53
1148.58
1151.61
1154.16
1156.14
1157.5
1148.54
1151.59
1154.16
1156.16
1157.54
1148.53
1151.58
1154.14
1156.13
1157.49
1148.49
1151.57
1154.15
1156.15
1157.53
1148.43
1151.53
1154.1
1156.1
1157.46
1148.39
1151.51
1154.11
1156.13
1157.51
1148.29
1151.45
1154.05
1156.06
1157.43
1148.27
1151.44
1154.06
1156.09
1157.48
1148.13
1151.34
1153.98
1156.01
1157.38
1148.13
1151.35
1154
1156.04
1157.43
1147.78
1151.09
1153.79
1155.85
1157.25
1147.82
1151.12
1153.83
1155.91
1157.31
1147.96
1151.22
1153.89
1155.93
1157.32
1147.98
1151.25
1153.92
1155.98
1157.38
1147.61
1150.95
1153.68
1155.77
1157.17
1147.63
1150.98
1153.72
1155.81
1157.22
1147.43
1150.81
1153.57
1155.68
1157.09
1147.43
1150.82
1153.59
1155.71
1157.14
1135.89
1136.28
1136.62
1136.17
1136.75
1136.69
1136.67
1136.59
1136.8
1136.69
1137.33
1137.2
1137.6
1137.45
1137.21
1137.08
1137.05
1136.96
1137.02
1136.95
1136.19
1136.08
1137.24
1137.7
1137.85
1137.89
1137.47
1137.29
1137.83
1137.18
1138.29
1138.99
1137.3
1137.5
1138.05
1137.44
1137.69
1137.73
1136.83
1136.79
1137.08
1136.97
1136.84
1136.72
1136.85
1137.02
1137.62
1137.51
1137.29
1137.17
1136.38
1136.22
1136.48
1136.36
1136.53
1136.58
1136.89
1137.29
1136.88
1135.47
1135.11
1134.95
1134.97
1135.16
1135.55
1135.25
1135.11
1135.16
1135.42
1136.88
1136.72
1136.7
1136.84
1137.15
1137.36
1137.21
1137.21
1137.36
1137.67
1137.51
1137.35
1137.34
1137.49
1137.79
1137.55
1137.4
1137.4
1137.55
1137.86
1137.12
1136.96
1136.95
1137.09
1137.4
1136.5
1136.03
1135.78
1135.73
1135.87
1137
1136.48
1136.22
1136.17
1136.33
1136.63
1136.28
1136.09
1136.1
1136.33
1137.52
1137.03
1136.79
1136.76
1136.96
1138.24
1137.74
1137.49
1137.46
1137.66
1136.86
1136.61
1136.51
1136.58
1136.85
1137
1136.68
1136.52
1136.55
1136.8
1137.55
1137.25
1137.1
1137.14
1137.39
1137.04
1136.81
1136.74
1136.84
1137.12
1137.26
1137.01
1136.91
1136.98
1137.26
1137.33
1137.11
1137.05
1137.15
1137.43
1136.12
1135.72
1135.51
1135.49
1135.66
1136.3
1136
1135.86
1135.9
1136.16
1136.66
1136.43
1136.35
1136.44
1136.72
1136.58
1136.36
1136.3
1136.41
1136.7
1136.41
1136.17
1136.08
1136.16
1136.43
1136.32
1136.1
1136.03
1136.13
1136.42
1136.47
1136.28
1136.24
1136.37
1136.67
1136.65
1136.46
1136.42
1136.55
1136.85
1137.26
1137.07
1137.04
1137.16
1137.46
1137.15
1136.98
1136.96
1137.09
1137.39
1136.9
1136.7
1136.64
1136.76
1137.04
1136.8
1136.61
1136.57
1136.69
1136.99
1135.69
1135.31
1135.14
1135.14
1135.33
1135.73
1135.44
1135.31
1135.37
1135.63
1135.91
1135.58
1135.41
1135.43
1135.64
1135.92
1135.67
1135.57
1135.65
1135.92
1136.12
1135.89
1135.81
1135.9
1136.18
1136.1
1135.81
1135.68
1135.73
1135.99
1136.51
1136.32
1136.27
1136.39
1136.69
1136.93
1136.76
1136.73
1136.87
1137.17
1136.49
1136.29
1136.23
1136.34
1136.63
1136.15
1136.37
1136.17
1136.41
1135.63
1135.88
1135.62
1135.84
1136.19
1136.22
1136.42
1136.37
1135.64
1135.65
1135.87
1135.8
1136.71
1137.25
1136.9
1137.42
1136.71
1137.2
1136.93
1137.41
1136.94
1136.74
1136.83
1136.7
1137.12
1137.32
1136.7
1136.94
1136.59
1136.86
1136.17
1136.42
1136.02
1136.26
1137.22
1137.47
1137.06
1137.36
1137.61
1137.92
1137.74
1138.16
1137.88
1138.29
1137.7
1138.21
1137.89
1138.34
1137.62
1138.31
1137.75
1138.36
1138.01
1138.63
1138.37
1139.01
1136.39
1136.52
1136.5
1136.65
1135.7
1135.74
1135.81
1135.85
1137.15
1137.55
1137.05
1137.41
1136.67
1136.81
1136.9
1137
1135.98
1136
1136.19
1136.17
1137.33
1137.71
1137.58
1137.92
1137.83
1138.59
1138.47
1139.34
1137.77
1138.59
1138.36
1139.27
1138
1138.73
1138.63
1139.47
1138.26
1138.98
1138.85
1139.68
1137.78
1138.03
1138.25
1138.65
1137.74
1137.95
1138.32
1138.71
1137.66
1137.78
1138.45
1138.77
1136.36
1135.65
1137.06
1137.8
1138.75
1135.62
1136.3
1137
1137.79
1138.92
1135.68
1136.45
1137.33
1138.29
1139.28
1138.44
1138.62
1139.7
1140.07
1138.25
1138.43
1139.63
1139.99
1137.96
1138.11
1139.53
1139.9
1135.64
1135.73
1136.36
1136.48
1137.11
1137.23
1138.02
1138.18
1139.65
1140.05
1135.68
1135.78
1136.53
1136.77
1137.49
1137.8
1138.6
1138.97
1140.09
1140.57
1136.72
1137.15
1136.84
1137.28
1135.76
1135.8
1135.86
1135.87
1137.92
1138.55
1137.78
1138.38
1136.94
1137.44
1137.13
1137.67
1135.98
1136.02
1136.15
1136.21
1138.02
1138.73
1138.23
1138.99
1139.21
1140.03
1140.85
1141.89
1139
1139.79
1140.56
1141.53
1139.38
1140.22
1141.11
1142.17
1139.53
1140.43
1141.24
1142.29
1138.69
1138.84
1139.82
1139.84
1138.5
1138.68
1139.77
1139.77
1138.23
1138.48
1139.72
1139.74
1135.94
1136.3
1136.7
1137.04
1137.43
1137.72
1138.33
1138.61
1139.81
1139.8
1135.99
1136.38
1137.11
1137.46
1138.09
1138.36
1139.08
1139.2
1140.1
1140.02
1134.76
1134.74
1134.98
1134.89
1135.15
1135.13
1135.38
1135.28
1134.48
1134.29
1134.69
1134.49
1134.49
1134.31
1134.72
1134.52
1134.68
1134.49
1134.65
1134.51
1134.35
1134.53
1135.1
1135.34
1135.49
1135.73
1134.95
1135.24
1134.87
1135.12
1134.8
1135.05
1134.17
1134.09
1134.36
1134.27
1134.17
1134.07
1134.38
1134.26
1134.19
1134.05
1134.34
1134.19
1134.58
1134.4
1134.81
1134.58
1134.67
1134.66
1134.78
1134.73
1135.12
1135.11
1135.23
1135.2
1134.48
1134.41
1134.38
1134.35
1134.93
1134.84
1135.11
1134.98
1135.39
1135.33
1135.58
1135.48
1134.62
1134.51
1134.79
1134.63
1134.26
1134.11
1134.23
1134.15
1134.18
1134.05
1134.18
1134.12
1134.4
1134.21
1134.31
1134.21
1134.56
1134.34
1134.42
1134.3
1134.08
1134.11
1134.01
1134.07
1134.1
1134.14
1134.02
1134.08
1134.14
1134.17
1134.03
1134.09
1134.63
1135.07
1134.35
1134.16
1134.06
1135.07
1134.66
1134.38
1134.19
1134.1
1135.06
1134.63
1134.34
1134.17
1134.12
1134.26
1134.5
1134.24
1134.51
1134.26
1134.49
1134.23
1134.48
1134.26
1134.47
1134.21
1134.45
1135.07
1135.17
1134.66
1134.78
1134.4
1134.55
1134.24
1134.42
1134.2
1134.41
1135.03
1135.07
1134.61
1134.66
1134.34
1134.44
1134.21
1134.37
1134.2
1134.41
1134.6
1134.57
1134.68
1134.62
1135.04
1134.98
1135.14
1135.03
1134.41
1134.43
1134.34
1134.4
1134.82
1134.72
1134.96
1134.86
1135.29
1135.14
1135.44
1135.3
1134.52
1134.52
1134.65
1134.66
1134.27
1134.39
1134.28
1134.49
1134.22
1134.37
1134.23
1134.45
1134.36
1134.46
1134.35
1134.56
1134.48
1134.59
1134.45
1134.66
1134.81
1135.09
1134.9
1135.23
1134.77
1135.07
1134.87
1135.22
1134.74
1135.07
1134.82
1135.23
1135.37
1135.74
1135
1135.38
1134.79
1135.17
1134.68
1135.07
1134.79
1135.27
1135.23
1135.65
1134.86
1135.3
1134.69
1135.15
1134.67
1135.16
1134.83
1135.38
1134.25
1134.74
1135.57
1136.93
1134.42
1134.91
1135.75
1137.11
1134.23
1134.72
1135.55
1136.92
1134.4
1134.88
1135.72
1137.08
1134.23
1134.71
1135.5
1136.83
1134.33
1134.81
1135.61
1136.94
1134.51
1134.97
1135.79
1137.12
1134.66
1135.09
1135.89
1137.2
1134.27
1134.75
1135.52
1136.82
1134.36
1134.83
1135.53
1136.7
1134.25
1134.73
1135.46
1136.7
1134.34
1134.83
1135.51
1136.63
1134.34
1134.8
1135.59
1136.92
1134.4
1134.86
1135.56
1136.73
1134.43
1134.87
1135.65
1136.94
1134.45
1134.9
1135.59
1136.74
1134.19
1134.68
1135.47
1136.76
1134.27
1134.76
1135.47
1136.62
1134.2
1134.69
1135.47
1136.75
1134.28
1134.77
1135.48
1136.62
1134.23
1134.71
1135.46
1136.71
1134.31
1134.8
1135.49
1136.62
1134.28
1134.77
1135.47
1136.65
1134.34
1134.83
1135.51
1136.6
1134.35
1134.84
1135.51
1136.58
1134.45
1134.94
1135.61
1136.45
1134.7
1135.18
1135.86
1136.64
1134.45
1134.94
1135.61
1136.44
1134.7
1135.18
1135.87
1136.65
1134.46
1134.95
1135.62
1136.45
1134.7
1135.19
1135.87
1136.65
1134.46
1134.95
1135.62
1136.45
1134.7
1135.2
1135.88
1136.66
1134.47
1134.97
1135.62
1136.45
1134.72
1135.22
1135.9
1136.67
1134.55
1135.04
1135.69
1136.5
1134.77
1135.27
1135.94
1136.71
1134.5
1135
1135.65
1136.47
1134.73
1135.24
1135.91
1136.68
1134.61
1135.08
1135.73
1136.54
1134.83
1135.32
1135.98
1136.74
1134.68
1135.13
1135.77
1136.57
1134.91
1135.37
1136.02
1136.78
1138.93
1140.52
1141.86
1142.95
1143.78
1139.03
1140.6
1141.94
1143.02
1143.85
1138.93
1140.52
1141.86
1142.95
1143.78
1139.03
1140.6
1141.94
1143.02
1143.85
1138.92
1140.52
1141.86
1142.95
1143.78
1138.98
1140.55
1141.89
1142.97
1143.8
1139.05
1140.61
1141.94
1143.02
1143.85
1139.06
1140.62
1141.94
1143.02
1143.85
1138.93
1140.53
1141.87
1142.95
1143.78
1139.02
1140.65
1141.99
1143.07
1143.9
1138.94
1140.55
1141.89
1142.97
1143.8
1139.03
1140.67
1142.01
1143.09
1143.92
1138.96
1140.54
1141.88
1142.96
1143.79
1139.05
1140.67
1142.01
1143.09
1143.92
1138.97
1140.55
1141.88
1142.96
1143.79
1139.08
1140.7
1142.03
1143.11
1143.93
1138.93
1140.55
1141.9
1142.98
1143.82
1139.04
1140.69
1142.04
1143.12
1143.95
1138.94
1140.56
1141.91
1142.99
1143.82
1139.05
1140.69
1142.04
1143.12
1143.95
1138.96
1140.58
1141.93
1143.01
1143.84
1139.06
1140.71
1142.05
1143.14
1143.96
1139
1140.64
1141.98
1143.07
1143.89
1139.1
1140.74
1142.08
1143.17
1143.99
1139.08
1140.72
1142.06
1143.14
1143.97
1142.37
1142.66
1142.41
1142.71
1142.5
1142.81
1142.65
1142.95
1142.89
1143.14
1143.49
1143.83
1143.22
1143.51
1143.72
1144.09
1143.93
1144.31
1146.08
1149.82
1152.83
1155.08
1156.57
1145.99
1149.78
1152.82
1155.09
1156.61
1146.11
1149.85
1152.85
1155.1
1156.58
1146.04
1149.82
1152.84
1155.12
1156.63
1146.19
1149.9
1152.88
1155.13
1156.61
1146.11
1149.87
1152.88
1155.15
1156.65
1146.3
1149.98
1152.94
1155.17
1156.65
1146.22
1149.94
1152.93
1155.19
1156.68
1146.47
1150.09
1153.02
1155.23
1156.7
1146.36
1150.03
1152.99
1155.24
1156.73
1146.87
1150.37
1153.23
1155.4
1156.84
1146.8
1150.33
1153.21
1155.4
1156.87
1146.67
1150.22
1153.12
1155.31
1156.77
1146.56
1150.16
1153.09
1155.31
1156.79
1147.06
1150.52
1153.34
1155.49
1156.92
1147.02
1150.5
1153.34
1155.5
1156.95
1147.25
1150.67
1153.46
1155.58
1157.01
1147.23
1150.67
1153.47
1155.61
1157.05
1135.57
1135.94
1135.68
1135.28
1134.77
1134.98
1134.76
1135.01
1135.15
1135.41
1135.15
1135.37
1139.42
1139.35
1139.18
1138.92
1138.56
1138.13
1139.44
1139.38
1139.22
1138.97
1138.64
1138.26
1139.59
1139.84
1139.51
1139.76
1139.32
1139.54
1139.02
1139.2
1138.62
1138.75
1138.15
1138.29
1137.66
1137.22
1136.85
1136.54
1136.31
1136.14
1137.85
1137.45
1137.09
1136.79
1136.56
1136.4
1139.1
1138.98
1139
1139.17
1139.48
1139.03
1138.91
1138.93
1139.1
1139.41
1138.87
1138.74
1138.76
1138.93
1139.24
1138.6
1138.47
1138.48
1138.65
1138.96
1138.23
1138.1
1138.11
1138.28
1138.59
1137.8
1137.66
1137.66
1137.82
1138.13
1139.13
1139
1139.03
1139.19
1139.51
1139.06
1138.94
1138.96
1139.13
1139.44
1138.9
1138.78
1138.8
1138.96
1139.28
1138.65
1138.52
1138.54
1138.7
1139.02
1138.32
1138.19
1138.2
1138.36
1138.67
1137.93
1137.79
1137.79
1137.95
1138.26
1139.27
1139.15
1139.17
1139.34
1139.65
1139.53
1139.41
1139.43
1139.6
1139.91
1139.2
1139.07
1139.09
1139.26
1139.58
1139.44
1139.32
1139.34
1139.51
1139.82
1139.01
1138.88
1138.9
1139.07
1139.38
1139.23
1139.1
1139.12
1139.29
1139.6
1138.7
1138.58
1138.59
1138.76
1139.07
1138.88
1138.75
1138.77
1138.93
1139.24
1138.3
1138.16
1138.17
1138.34
1138.65
1138.43
1138.29
1138.31
1138.47
1138.78
1137.82
1137.68
1137.69
1137.84
1138.16
1137.96
1137.82
1137.83
1137.98
1138.29
1137.32
1137.17
1137.17
1137.32
1137.63
1136.87
1136.71
1136.69
1136.83
1137.14
1136.48
1136.29
1136.26
1136.38
1136.68
1136.14
1135.93
1135.87
1135.98
1136.27
1135.88
1135.64
1135.56
1135.66
1135.94
1135.69
1135.44
1135.35
1135.43
1135.71
1137.51
1137.36
1137.36
1137.51
1137.82
1137.1
1136.94
1136.92
1137.07
1137.37
1136.73
1136.55
1136.52
1136.65
1136.95
1136.41
1136.22
1136.17
1136.29
1136.59
1136.16
1135.95
1135.89
1136
1136.29
1135.99
1135.77
1135.7
1135.81
1136.1
1139.38
1139.25
1139.01
1138.67
1138.24
1137.74
1139.41
1139.28
1139.05
1138.73
1138.34
1137.89
1139.55
1139.81
1139.4
1139.64
1139.14
1139.35
1138.77
1138.93
1138.29
1138.4
1137.73
1137.85
1137.21
1136.72
1136.34
1136.09
1135.99
1136.02
1137.43
1137.01
1136.67
1136.43
1136.31
1136.31
1139.07
1138.94
1138.97
1139.13
1139.45
1138.93
1138.81
1138.83
1139
1139.31
1138.69
1138.57
1138.59
1138.75
1139.07
1138.35
1138.23
1138.24
1138.41
1138.73
1137.92
1137.79
1137.8
1137.97
1138.29
1137.41
1137.27
1137.28
1137.45
1137.76
1139.09
1138.97
1138.99
1139.16
1139.47
1138.96
1138.84
1138.86
1139.03
1139.34
1138.73
1138.61
1138.63
1138.79
1139.11
1138.41
1138.28
1138.3
1138.47
1138.78
1138.02
1137.88
1137.9
1138.06
1138.38
1137.56
1137.43
1137.44
1137.6
1137.91
1139.24
1139.11
1139.14
1139.3
1139.62
1139.49
1139.37
1139.39
1139.56
1139.87
1139.09
1138.97
1138.99
1139.16
1139.47
1139.33
1139.21
1139.23
1139.4
1139.71
1138.83
1138.7
1138.72
1138.89
1139.21
1139.04
1138.91
1138.94
1139.1
1139.42
1138.45
1138.32
1138.34
1138.51
1138.82
1138.61
1138.48
1138.5
1138.67
1138.98
1137.97
1137.83
1137.85
1138.02
1138.33
1138.08
1137.95
1137.97
1138.13
1138.45
1137.41
1137.27
1137.28
1137.45
1137.76
1137.52
1137.38
1137.4
1137.56
1137.87
1136.87
1136.73
1136.73
1136.89
1137.2
1136.38
1136.22
1136.21
1136.36
1136.68
1135.98
1135.8
1135.78
1135.92
1136.23
1135.7
1135.5
1135.46
1135.58
1135.88
1135.57
1135.35
1135.28
1135.38
1135.67
1135.58
1135.33
1135.25
1135.33
1135.61
1137.1
1136.95
1136.96
1137.11
1137.43
1136.66
1136.51
1136.5
1136.65
1136.96
1136.31
1136.14
1136.12
1136.26
1136.56
1136.05
1135.87
1135.83
1135.96
1136.26
1135.92
1135.72
1135.66
1135.78
1136.07
1135.9
1135.69
1135.62
1135.73
1136.02
1135.99
1135.93
1136.66
1137.2
1137.24
1137.36
1136.87
1135.67
1135.82
1135.73
1136.18
1136.11
1136.04
1136.38
1136.45
1136.66
1135.63
1135.66
1136.05
1136.09
1135.85
1135.92
1136.21
1136.29
1136.77
1136.77
1136.37
1136.36
1135.8
1135.8
1135.62
1135.76
1135.82
1135.66
1136.18
1136.61
1136.08
1135.29
1134.94
1134.8
1134.82
1135.03
1135.41
1135.11
1134.98
1135.04
1135.3
1136.32
1136.16
1136.16
1136.31
1136.62
1136.87
1136.73
1136.73
1136.89
1137.21
1136.9
1136.75
1136.76
1136.91
1137.23
1137.03
1136.89
1136.9
1137.06
1137.37
1136.52
1136.38
1136.38
1136.53
1136.85
1135.05
1134.73
1134.6
1134.65
1134.85
1135.22
1134.92
1134.8
1134.86
1135.09
1135.27
1135.02
1134.93
1135.01
1135.29
1135.64
1135.37
1135.28
1135.36
1135.63
1135.73
1135.54
1135.49
1135.62
1135.92
1135.62
1135.4
1135.34
1135.44
1135.73
1136.01
1135.84
1135.81
1135.94
1136.25
1136.08
1135.89
1135.85
1135.98
1136.28
1136.29
1136.12
1136.1
1136.24
1136.54
1135.02
1134.71
1134.59
1134.64
1134.85
1135.23
1135
1134.92
1135.01
1135.3
1135.67
1135.48
1135.45
1135.58
1135.88
1135.72
1135.54
1135.51
1135.64
1135.95
1135.46
1135.26
1135.21
1135.33
1135.63
1135.54
1135.35
1135.31
1135.44
1135.74
1135.85
1135.68
1135.66
1135.8
1136.11
1135.93
1135.76
1135.75
1135.89
1136.2
1136.42
1136.26
1136.25
1136.4
1136.71
1136.43
1136.28
1136.27
1136.42
1136.74
1136
1135.83
1135.81
1135.95
1136.26
1136.01
1135.84
1135.83
1135.97
1136.28
1135.14
1134.82
1134.68
1134.72
1134.94
1135.32
1135.05
1134.95
1135.03
1135.3
1135.1
1134.82
1134.71
1134.77
1135.01
1135.34
1135.12
1135.05
1135.15
1135.44
1135.42
1135.22
1135.17
1135.29
1135.58
1135.22
1134.98
1134.9
1134.99
1135.27
1135.81
1135.64
1135.62
1135.76
1136.07
1136.26
1136.11
1136.1
1136.25
1136.56
1135.71
1135.53
1135.5
1135.64
1135.95
1136.24
1135.95
1135.83
1135.87
1136.07
1136.46
1136.08
1136.11
1135.55
1135.54
1136.13
1136.18
1135.56
1135.59
1136.66
1137.26
1136.66
1137.2
1136.72
1136.69
1137.1
1136.07
1136.1
1135.53
1135.51
1136.12
1136.17
1135.55
1135.58
1136.69
1137.33
1136.69
1137.25
1136.75
1136.7
1137.15
1136.08
1136.11
1135.52
1135.5
1136.14
1136.18
1135.55
1135.58
1136.72
1137.49
1136.72
1137.39
1136.78
1136.73
1137.27
1136.18
1136.21
1135.62
1135.6
1136.25
1136.3
1135.65
1135.69
1136.87
1137.68
1136.87
1137.58
1136.91
1136.86
1137.43
1136.38
1136.41
1135.81
1135.79
1136.44
1136.5
1135.84
1135.88
1137.07
1137.83
1137.06
1137.75
1137.1
1137.05
1137.6
1136.72
1136.75
1136.17
1136.15
1136.77
1136.83
1136.19
1136.23
1137.37
1138.07
1137.36
1138
1137.39
1137.34
1137.85
1134.68
1134.68
1135.07
1135.07
1134.69
1134.7
1135.08
1135.09
1134.4
1134.19
1134.42
1134.23
1134.42
1134.46
1134.29
1134.66
1134.66
1135.05
1135.04
1134.68
1134.69
1135.06
1135.08
1134.37
1134.19
1134.39
1134.23
1134.41
1134.46
1134.3
1134.65
1134.65
1135.04
1135.03
1134.68
1134.7
1135.06
1135.08
1134.39
1134.27
1134.41
1134.31
1134.45
1134.5
1134.37
1134.74
1134.75
1135.13
1135.12
1134.79
1134.82
1135.16
1135.18
1134.51
1134.45
1134.54
1134.48
1134.58
1134.64
1134.54
1134.95
1134.96
1135.33
1135.32
1135
1135.05
1135.36
1135.39
1134.74
1134.71
1134.77
1134.74
1134.82
1134.89
1134.79
1135.32
1135.34
1135.7
1135.68
1135.37
1135.41
1135.72
1135.75
1135.11
1135.05
1135.15
1135.08
1135.19
1135.24
1135.13
1139.25
1139.16
1138.97
1138.81
1138.56
1138.4
1137.99
1137.86
1138.1
1137.95
1138.55
1138.4
1138.87
1138.73
1139.13
1139.03
1138.44
1138.23
1138.17
1137.89
1137.74
1137.48
1137.5
1137.17
1139.61
1140.19
1139.5
1140.05
1139.34
1139.91
1139.17
1139.71
1138.76
1139.07
1138.48
1138.87
1139.56
1139.23
1137.83
1137.34
1137.56
1137.19
1137.2
1136.78
1136.88
1136.56
1138.43
1137.91
1138.13
1137.74
1138.9
1138.4
1140.87
1141.27
1140.59
1141.01
1140.58
1141.08
1140.25
1140.71
1140.17
1140.85
1139.66
1140.29
1139.27
1139.89
1138.82
1139.46
1138.29
1138.2
1137.86
1137.82
1137.37
1137.26
1137.03
1136.92
1138.66
1138.78
1139.16
1139.18
1137.5
1137.5
1137.17
1137.23
1136.72
1136.63
1136.43
1136.38
1138.24
1138.44
1137.88
1138.17
1139.44
1140.2
1139.73
1140.59
1139.98
1140.76
1140.16
1141.05
1138.99
1139.73
1139.38
1140.22
1138.59
1139.32
1139.1
1139.93
1141.82
1142.7
1141.96
1142.84
1141.55
1142.37
1141.82
1142.65
1141.11
1141.73
1141.57
1142.26
1138.9
1137.81
1139.88
1140.62
1141.42
1137.96
1139.11
1140.28
1141.07
1141.94
1137.68
1138.71
1139.69
1140.63
1141.54
1143.51
1143.91
1143.95
1144.3
1143.09
1143.54
1143.67
1144.05
1142.38
1142.89
1143.2
1143.65
1138.21
1138.62
1139.46
1140.02
1140.62
1141.2
1141.54
1142.11
1142.75
1143.33
1137.87
1138.2
1139.01
1139.6
1140.09
1140.75
1141.15
1141.87
1142.49
1143.25
1138.49
1139.14
1138.01
1138.6
1137.36
1137.55
1136.94
1137.04
1139.15
1139.93
1139.61
1140.44
1137.61
1138.2
1137.35
1137.91
1136.6
1136.7
1136.35
1136.43
1138.73
1139.52
1138.47
1139.24
1140.44
1141.38
1142.04
1143.18
1140.82
1141.8
1142.29
1143.41
1140.1
1141.01
1141.8
1142.92
1139.78
1140.69
1141.46
1142.52
1144.02
1144.19
1144.51
1144.1
1144.16
1144.45
1143.75
1143.96
1144.3
1143.9
1143.98
1144.29
1143.21
1143.49
1143.87
1143.6
1143.72
1144.08
1139.13
1139.71
1140.32
1140.62
1141.12
1141.67
1141.75
1142.18
1142.66
1142.56
1142.92
1143.38
1143.36
1143.54
1143.95
1138.67
1139.32
1140.01
1140.38
1141.05
1141.74
1141.54
1142.13
1142.75
1142.48
1142.92
1143.46
1143.35
1143.58
1144.06
1136.51
1136.3
1136.33
1136.06
1137.07
1136.81
1136.85
1136.54
1136.4
1135.97
1136.35
1135.95
1136.27
1135.88
1136.18
1135.82
1135.89
1136.06
1135.77
1135.98
1135.81
1135.66
1135.85
1135.61
1136.28
1136.01
1135.77
1135.54
1135.6
1135.38
1135.57
1135.35
1135.53
1135.14
1135.6
1135.24
1135.47
1135.07
1135.49
1135.12
1135.42
1134.98
1135.32
1134.92
1135.24
1134.89
1135.05
1134.76
1136.02
1135.84
1135.78
1135.58
1136.61
1136.45
1136.33
1136.15
1135.4
1135.16
1135.61
1135.39
1135.55
1135.35
1135.32
1135.15
1136.06
1135.9
1135.8
1135.68
1135.2
1134.96
1134.99
1134.78
1135.09
1134.74
1134.88
1134.68
1135.25
1134.89
1135.08
1134.85
1134.92
1134.61
1134.71
1134.53
1134.73
1134.48
1134.55
1134.41
1135.54
1135.72
1135.18
1135.37
1135.53
1135.73
1135.15
1135.35
1135.52
1135.7
1135.11
1135.29
1136.2
1136.89
1135.76
1135.42
1135.06
1137.03
1136.34
1135.94
1135.6
1135.21
1136.76
1136.09
1135.6
1135.28
1135.01
1136.04
1136.49
1135.7
1136.13
1136.02
1136.44
1135.64
1136.06
1135.96
1136.36
1135.55
1135.93
1137.21
1137.55
1136.48
1136.83
1136.07
1136.43
1135.75
1136.12
1135.39
1135.75
1136.87
1137.07
1136.18
1136.38
1135.71
1135.96
1135.41
1135.71
1135.18
1135.55
1135.8
1135.87
1135.53
1135.52
1136.43
1136.47
1136.1
1136.06
1135.16
1135.25
1135.39
1135.54
1135.32
1135.26
1135.13
1135.04
1135.85
1135.75
1135.63
1135.5
1134.98
1135.01
1134.8
1134.82
1134.93
1135.12
1134.83
1135.12
1135.14
1135.39
1134.99
1135.33
1134.76
1134.9
1134.68
1134.94
1134.61
1134.74
1134.56
1134.78
1137.09
1137.69
1138.26
1136.87
1137.55
1138.12
1137.01
1137.62
1138.2
1136.78
1137.46
1138.05
1136.89
1137.49
1138.07
1136.62
1137.33
1137.96
1138.01
1138.59
1139.21
1137.31
1137.9
1138.54
1136.91
1137.53
1138.18
1136.63
1137.25
1137.88
1136.44
1137.19
1137.88
1137.44
1138.06
1138.77
1136.77
1137.41
1138.12
1136.4
1137.08
1137.81
1136.23
1136.95
1137.68
1136.27
1137.06
1137.82
1134.97
1135.23
1135.91
1137.16
1135.09
1135.36
1136.06
1137.33
1134.92
1135.19
1135.87
1137.13
1134.99
1135.29
1135.99
1137.26
1134.86
1135.14
1135.79
1137.02
1134.83
1135.14
1135.84
1137.09
1134.85
1135.2
1135.95
1137.23
1134.78
1135.17
1135.95
1137.24
1134.71
1135.04
1135.72
1136.96
1134.73
1135.09
1135.71
1136.83
1134.81
1135.11
1135.73
1136.88
1134.85
1135.17
1135.75
1136.8
1134.62
1134.99
1135.72
1137.01
1134.62
1135.02
1135.68
1136.82
1134.53
1134.93
1135.7
1136.98
1134.53
1134.95
1135.63
1136.77
1134.99
1135.22
1135.84
1137.01
1135.15
1135.34
1135.87
1136.9
1134.98
1135.21
1135.82
1136.99
1135.14
1135.34
1135.87
1136.89
1134.96
1135.21
1135.8
1136.93
1135.11
1135.33
1135.86
1136.86
1134.95
1135.22
1135.78
1136.85
1135.08
1135.32
1135.84
1136.82
1134.97
1135.26
1135.79
1136.77
1135.4
1135.55
1136.03
1136.76
1135.67
1135.81
1136.29
1136.98
1135.37
1135.54
1136.01
1136.75
1135.64
1135.79
1136.28
1136.98
1135.31
1135.51
1136
1136.74
1135.58
1135.77
1136.27
1136.96
1135.23
1135.46
1135.96
1136.71
1135.51
1135.73
1136.25
1136.95
1135.13
1135.41
1135.92
1136.67
1135.42
1135.68
1136.22
1136.93
1134.93
1135.29
1135.87
1136.65
1135.19
1135.55
1136.14
1136.87
1135.02
1135.35
1135.9
1136.66
1135.31
1135.62
1136.18
1136.9
1134.84
1135.24
1135.84
1136.64
1135.09
1135.49
1136.1
1136.84
1134.75
1135.19
1135.81
1136.61
1134.99
1135.43
1136.06
1136.81
1139.06
1140.6
1141.91
1142.98
1143.8
1139.16
1140.68
1141.99
1143.06
1143.88
1139.05
1140.6
1141.91
1142.98
1143.8
1139.14
1140.67
1141.98
1143.05
1143.87
1139.03
1140.59
1141.9
1142.97
1143.8
1139.07
1140.61
1141.92
1142.99
1143.82
1139.11
1140.65
1141.96
1143.04
1143.86
1139.09
1140.63
1141.95
1143.03
1143.85
1139.02
1140.58
1141.9
1142.97
1143.79
1139.1
1140.69
1142.02
1143.09
1143.91
1139.03
1140.61
1141.93
1143
1143.82
1139.12
1140.72
1142.04
1143.11
1143.93
1139.02
1140.58
1141.9
1142.97
1143.8
1139.11
1140.7
1142.03
1143.1
1143.93
1138.99
1140.56
1141.89
1142.96
1143.79
1139.1
1140.71
1142.04
1143.11
1143.93
1139.07
1140.64
1141.95
1143.02
1143.84
1139.19
1140.77
1142.09
1143.15
1143.98
1139.07
1140.64
1141.96
1143.02
1143.85
1139.19
1140.78
1142.09
1143.16
1143.98
1139.07
1140.65
1141.97
1143.04
1143.86
1139.19
1140.78
1142.1
1143.17
1143.99
1139.11
1140.7
1142.02
1143.09
1143.91
1139.21
1140.81
1142.12
1143.19
1144.01
1139.18
1140.77
1142.1
1143.16
1143.99
1145.82
1146.07
1145.7
1145.96
1145.49
1145.78
1145.23
1145.57
1144.97
1145.36
1144.56
1145.01
1144.77
1145.21
1144.36
1144.79
1144.14
1144.53
1148.58
1151.61
1154.16
1156.14
1157.5
1148.54
1151.59
1154.16
1156.16
1157.54
1148.53
1151.58
1154.14
1156.13
1157.49
1148.49
1151.57
1154.15
1156.16
1157.53
1148.43
1151.53
1154.1
1156.1
1157.46
1148.39
1151.51
1154.11
1156.13
1157.51
1148.29
1151.45
1154.05
1156.06
1157.43
1148.27
1151.44
1154.06
1156.09
1157.48
1148.13
1151.34
1153.98
1156.01
1157.38
1148.13
1151.35
1154
1156.04
1157.44
1147.78
1151.09
1153.79
1155.85
1157.25
1147.82
1151.12