/*--------------------------------*- C++ -*----------------------------------*\
  =========                 |
  \\      /  F ield         | OpenFOAM: The Open Source CFD Toolbox
   \\    /   O peration     | Website:  https://openfoam.org
    \\  /    A nd           | Version:  13
     \\/     M anipulation  |
\*---------------------------------------------------------------------------*/
FoamFile
{
    format      ascii;
    class       volScalarField;
    location    "414.831886";
    object      T;
}
// * * * * * * * * * * * * * * * * * * * * * * * * * * * * * * * * * * * * * //

dimensions      [0 0 0 1 0 0 0];

internalField   nonuniform List<scalar> 
5712
(
721.487
722.43
723.941
725.411
727.624
729.147
732.705
733.968
731.637
733.076
727.659
729.095
724.747
726.085
722.557
723.563
728.79
730.602
731.396
733.964
734.99
737.326
737.422
740.462
718.284
713.003
719.293
714.362
720.605
715.544
722.203
717.426
726.03
723.07
728.629
724.883
718.681
721.816
734.661
739.514
737.199
740.892
740.352
744.512
743.373
746.601
729.299
734.317
732.041
735.916
725.022
729.884
706.952
703.406
709.528
705.845
709.505
705.039
712.573
708.467
713.235
707.187
717.963
712.326
721.715
716.134
726.066
720.363
730.032
730.809
734.208
734.563
738.24
739.223
741.655
742.632
727.048
726.001
722.228
722.059
737.817
737.74
741.144
740.438
744.793
745.562
747.786
748.115
731.08
729.329
734.732
732.084
720.041
713.28
717.563
710.041
714.903
708.036
713.497
705.73
724.371
717.751
720.967
713.549
728.283
721.719
723.718
716.382
698.408
690.6
697.145
689.424
700.729
693.415
698.418
691.029
704.673
698.981
700.615
694.495
724.197
733.769
715.526
709.027
702.077
732.235
722.136
711.789
704.86
697.408
734.964
725.93
717.234
709.068
701.159
683.434
679.785
679.724
676.486
686.949
682.766
682.099
678.605
693.138
688.415
686.229
682.078
729.684
725.57
718.698
713.304
708.582
703.084
700.581
695.206
690.236
684.981
732.992
729.547
722.914
717.293
713.536
707.277
704.3
697.673
692.835
686.039
727.98
721.792
732.549
727.023
737.913
735.678
742.069
740.571
722.523
715.461
718.094
710.597
736.488
730.944
739.156
733.88
745.497
744.06
748.064
746.918
726.585
719.388
729.239
722.22
711.226
702.917
697.474
687.654
707.639
698.901
695.01
685.35
714.541
706.492
699.822
690.167
717.694
709.559
703.037
693.877
678.399
676.67
673.834
677.727
676.844
674.241
680.641
678.532
675.504
679.427
678.373
675.552
685.262
682.512
679.09
682.037
680.534
677.344
720.566
715.025
709.346
707.542
702.715
697.764
697.799
693.636
689.316
690.855
687.326
683.238
684.173
682.137
678.376
724.813
718.537
712.066
709.868
703.441
697.173
699.81
694.128
688.558
691.782
687.403
682.503
684.46
681.839
677.478
745.968
747.89
747.867
750.408
741.026
743.376
743.166
746.147
746.68
750.466
747.204
750.728
747.908
751.29
748.841
752.012
751.763
749.919
752.873
750.687
752.143
753.701
752.626
755.237
748.776
751.625
753.117
755.657
754.731
757.139
754.73
757.225
754.243
757.542
753.674
756.706
754.873
758.249
754.854
757.91
755.517
759.192
756.714
759.992
757.675
760.487
759.845
762.058
750.324
751.96
752.874
754.691
745.087
746.485
747.995
749.503
756.238
758.424
753.956
755.986
755.375
757.095
757.885
759.252
750.776
752.15
753.497
754.512
758.482
760.584
760.814
762.53
758.988
761.782
760.798
762.357
757.093
760.173
758.642
760.535
760.874
763.261
762.722
763.967
762.95
764.855
764.449
765.399
753.744
751.708
756.985
754.934
753.876
751.735
757.285
755.161
754.09
752.159
757.776
755.87
748.248
742.002
752.141
755.203
758.346
740.568
746.73
750.292
753.29
756.679
743.237
749.322
753.677
756.564
758.766
748.433
744.06
751.653
747.424
748.744
744.542
752.202
748.125
749.504
745.483
753.262
749.428
738.607
735.091
745.139
741.528
748.821
745.138
751.645
747.918
754.885
751.227
741.905
739.643
748.139
745.848
752.374
749.727
755.055
751.911
757.012
753.274
752.011
750.861
754.787
754.3
746.339
745.359
749.6
749.476
758.083
756.74
755.66
753.771
757.01
757.063
759.167
759.458
752.225
752.615
754.605
755.277
760.111
759.241
762.071
761.41
760.022
757.785
760.742
757.585
757.809
755.086
758.992
755.477
761.901
760.119
762.305
759.52
763.562
761.976
763.774
761.348
738.219
732.489
727.184
740.272
733.785
728.448
739.028
733.204
727.762
741.234
734.679
729.095
740.245
734.485
728.931
742.8
735.897
729.918
730.447
724.858
719.033
736.759
730.936
724.93
740.303
734.22
728.082
742.816
736.733
730.758
744.51
737.203
730.663
735.788
729.641
722.978
741.807
735.501
728.742
745.163
738.482
731.494
746.628
739.616
732.557
746.193
738.476
731.267
758.434
755.042
747.472
734.336
757.394
753.797
745.988
732.746
758.948
755.451
747.854
734.594
758.338
754.543
746.66
733.37
759.632
755.981
748.682
735.788
760.043
755.995
748.222
735.047
760.007
755.571
747.249
733.74
760.93
756.035
747.354
733.709
761.313
757.072
749.455
736.367
761.124
756.687
749.683
737.88
760.114
756.269
749.367
737.215
759.809
755.768
749.251
738.141
762.338
757.704
749.495
735.922
762.299
757.507
750.098
738.015
763.407
758.388
749.872
736.335
763.359
758.246
750.61
738.562
758.153
755.088
748.18
735.814
756.514
753.861
747.92
737.11
758.309
755.171
748.353
736.059
756.601
753.856
747.945
737.228
758.541
755.257
748.647
736.695
756.974
754.011
748.085
737.493
758.64
755.169
748.869
737.6
757.336
754.136
748.277
737.972
758.532
754.855
748.822
738.478
754.066
751.773
746.398
738.72
751.367
749.3
743.883
736.802
754.387
751.952
746.539
738.872
751.699
749.469
743.987
736.878
754.975
752.271
746.735
739.013
752.283
749.761
744.147
737.017
755.831
752.756
747.107
739.342
753.081
750.185
744.409
737.214
756.946
753.399
747.562
739.705
754.022
750.681
744.698
737.421
759.138
754.69
748.221
740.042
756.473
752.142
745.637
738.073
758.05
754.034
747.873
739.848
755.24
751.396
745.157
737.75
760.146
755.317
748.551
740.21
757.65
752.867
746.09
738.427
761.135
755.97
748.998
740.574
758.764
753.588
746.574
738.812
714.968
699.69
687.008
677.036
669.744
714.1
699.01
686.38
676.432
669.155
715.09
699.753
687.047
677.065
669.768
714.28
699.124
686.464
676.501
669.217
715.313
699.852
687.109
677.111
669.808
714.936
699.659
686.943
676.949
669.647
714.632
699.34
686.61
676.61
669.31
714.893
699.521
686.74
676.71
669.395
715.474
699.943
687.165
677.15
669.839
714.82
698.977
686.181
676.186
668.897
715.309
699.692
686.922
676.921
669.62
714.582
698.738
685.963
675.984
668.705
715.521
699.966
687.163
677.133
669.815
714.776
698.893
686.076
676.071
668.779
715.788
700.139
687.284
677.225
669.895
714.876
698.91
686.054
676.028
668.728
714.891
699.378
686.673
676.709
669.425
713.893
698.201
685.519
675.592
668.338
714.93
699.367
686.646
676.676
669.39
713.931
698.206
685.513
675.581
668.325
714.94
699.281
686.536
676.559
669.272
713.943
698.164
685.454
675.515
668.257
714.672
698.87
686.11
676.136
668.855
713.794
697.973
685.251
675.31
668.052
714.079
698.243
685.496
675.539
668.274
664.488
662.396
665.485
663.351
667.329
664.951
669.709
666.899
672.162
668.859
676.202
672.416
674.163
670.44
678.195
674.569
680.253
676.972
642.555
619.395
600.532
586.265
576.785
642.885
619.572
600.503
586.15
576.518
643.007
619.63
600.678
586.368
576.873
643.297
619.753
600.647
586.198
576.585
643.918
620.132
600.998
586.6
577.067
644.177
620.235
600.953
586.419
576.769
645.165
620.856
601.47
586.943
577.353
645.317
620.895
601.382
586.73
577.027
646.646
621.783
602.095
587.402
577.736
646.57
621.679
601.911
587.122
577.357
649.878
624.066
603.741
588.668
578.83
649.534
623.754
603.403
588.281
578.379
648.256
622.894
602.878
587.994
578.24
647.966
622.627
602.572
587.625
577.795
651.496
625.266
604.642
589.381
579.455
651.275
625.045
604.378
589.057
579.064
653.145
626.507
605.583
590.127
580.105
653.155
626.419
605.441
589.902
579.78
752.565
749.034
745.543
749.56
743.546
744.154
744.357
745.201
743.263
744.412
738.565
739.881
736.016
737.466
739.53
740.757
740.867
741.725
741.08
741.741
748.472
748.954
734.77
729.642
728.763
727.893
732.453
737.474
732.193
737.718
727.545
720.985
735.816
734.364
729.178
734.155
732.114
731.416
741.697
741.251
737.75
738.482
740.211
741.051
739.239
737.543
731.827
732.507
735.337
736.15
746.316
747.144
744.74
745.248
743.117
743.258
738.943
734.559
739.248
755.079
758.412
759.763
759.438
757.442
753.894
756.694
757.854
757.242
754.673
738.058
739.584
739.714
738.364
735.484
732.774
734.156
734.162
732.738
729.858
731.934
733.37
733.438
732.067
729.22
731.007
732.379
732.386
730.97
728.106
735.688
737.17
737.267
735.902
733.031
744.614
748.915
751.144
751.506
750.101
739.752
744.378
746.743
747.135
745.522
742.819
746.078
747.766
747.578
745.284
734.489
738.91
741.08
741.274
739.314
727.681
732.16
734.34
734.554
732.622
739.857
742.197
743.098
742.326
739.73
739.047
741.987
743.411
743.022
740.63
733.667
736.469
737.795
737.354
734.968
737.911
739.971
740.624
739.676
737.004
736.082
738.373
739.245
738.465
735.891
735.078
737.059
737.651
736.67
734.002
748.272
751.934
753.75
753.817
752.128
745.791
748.541
749.791
749.276
746.792
741.604
743.742
744.455
743.537
740.857
742.168
744.121
744.655
743.6
740.846
744.2
746.451
747.257
746.403
743.741
744.827
746.854
747.446
746.425
743.671
742.75
744.497
744.825
743.607
740.763
741.018
742.744
743.061
741.844
739.013
735.224
736.906
737.208
736.005
733.224
735.816
737.388
737.577
736.283
733.449
738.931
740.808
741.285
740.2
737.452
739.64
741.393
741.745
740.561
737.757
752.713
756.14
757.628
757.422
755.571
751.774
754.428
755.505
754.836
752.241
750.071
753.12
754.569
754.275
752.164
749.38
751.701
752.535
751.684
748.994
747.018
749.15
749.829
748.868
746.131
747.716
750.362
751.524
750.943
748.415
742.484
744.268
744.636
743.451
740.626
737.898
739.487
739.682
738.383
735.532
742.89
744.786
745.263
744.16
741.376
752.024
749.86
751.786
749.359
756.774
754.223
756.945
754.706
751.496
751.13
749.112
749.462
756.588
756.325
754.18
754.71
746.921
741.931
744.985
740.211
746.83
742.317
744.532
740.124
744.302
746.402
745.307
746.761
742.917
740.819
746.172
743.565
747.126
744.319
751.039
748.302
752.382
749.737
741.485
738.724
742.896
739.794
737.921
734.672
737.369
733.419
735.879
732.129
737.636
732.95
735.692
731.55
738.37
732.031
736.942
731.315
734.251
728.516
730.588
724.78
749.457
748.045
748.226
746.617
755.738
755.183
754.435
753.899
742.288
738.508
743.412
739.971
746.328
744.91
743.929
742.838
752.574
752.295
750.325
750.377
740.372
736.765
737.796
734.566
736.114
729.143
730.157
722.374
736.928
729.415
731.424
723.208
734.267
727.618
728.477
720.939
731.566
725.038
726.228
718.854
737.175
735.007
732.784
729.324
737.502
735.743
732.112
728.8
738.107
737.201
730.902
728.18
749.846
756.34
743.522
736.731
728.136
756.608
750.446
744.153
737.003
726.767
755.914
748.924
740.912
732.216
723.324
731.384
729.727
720.068
716.762
733.076
731.423
720.696
717.399
735.574
734.227
721.432
718.126
756.521
755.626
749.954
748.905
743.126
742.074
734.896
733.534
720.286
716.782
755.905
754.919
748.233
745.99
739.543
736.733
729.555
726.228
716.275
712.088
746.148
742.205
744.784
740.706
754.86
754.346
753.611
753.231
735.061
729.37
736.624
731.248
743.559
738.84
741.485
736.42
752.184
751.47
750.274
749.324
733.849
727.434
731.625
724.806
723.533
716.319
709.113
700.164
725.717
718.719
711.944
703.55
721.798
714.31
706.675
697.456
720.154
712.15
705.226
696.164
729.06
727.579
718.859
718.626
730.708
729.063
719.254
719.158
733.13
730.751
719.63
719.409
753.65
750.106
746.813
743.527
740.265
737.456
732.081
729.474
718.786
718.741
752.906
749.1
742.886
739.471
734.059
731.536
725.187
724.044
716.094
716.713
764.573
764.603
762.198
763.009
761.045
761.04
758.574
759.395
767.155
768.763
764.966
766.635
767.026
768.541
764.62
766.254
764.846
766.953
765.095
766.705
768.11
766.091
760.751
758.065
757.17
754.56
761.955
758.921
762.769
760.038
763.277
760.453
769.581
769.776
767.507
767.812
769.554
769.905
767.323
767.856
769.425
770.062
767.681
768.551
765.122
766.252
762.574
764.156
765.09
765.053
763.879
764.102
761.041
760.97
759.771
759.842
766.575
766.897
767.705
767.708
762.155
762.78
760.119
761.17
757.982
758.366
755.856
756.608
764.919
765.722
762.961
764.263
768.375
769.203
768.351
768.604
769.412
769.94
769.048
769.133
766.796
767.964
767.317
767.778
764.942
766.459
766.002
766.687
770.568
770.361
770.625
770.2
770.416
770.175
770.587
770.109
770.04
769.848
770.423
769.994
765.597
761.625
768.161
769.732
770.03
761.65
765.47
768.014
769.584
769.769
761.612
765.529
768.073
769.335
769.295
769.082
766.754
768.683
766.231
769.098
766.926
768.783
766.433
769.049
767.129
768.904
766.751
761.673
760.792
765.486
764.386
767.778
766.39
769.081
767.453
768.891
766.94
761.856
761.457
765.698
765.139
768.007
767.014
768.98
767.477
768.549
766.59
765.494
765.504
764.33
764.658
761.495
761.863
760.174
760.942
766.712
766.228
767.715
766.992
762.707
763.266
761.066
761.496
758.446
759.432
756.669
757.508
765.3
764.945
763.8
763.29
767.699
766.355
767.174
765.082
768.536
766.998
767.95
765.797
766.567
765.261
766.193
764.005
765.178
763.732
765.063
762.795
763.868
761.112
762.652
759.453
764.238
761.279
762.898
759.514
764.551
761.265
763.256
759.327
758.801
755.196
762.183
758.48
764.071
760.347
764.907
761.073
763.433
758.797
759.785
755.646
763.179
758.836
764.594
760.07
764.529
759.841
762.751
757.521
767.128
760.994
751.554
737.076
765.341
759.256
749.753
735.289
767.199
761.104
751.703
737.128
765.45
759.435
750.027
735.626
767.223
761.187
752.24
738.111
766.047
760.132
751.099
736.98
764.029
758.348
749.183
735.052
762.39
757.045
748.059
734.194
766.534
760.678
751.99
738.124
765.588
759.772
751.902
739.518
766.946
760.964
752.63
739.415
765.921
759.968
752.195
740.206
765.663
760.009
751.135
737.095
765.04
759.408
751.493
739.095
764.557
759.186
750.442
736.744
764.289
758.892
751.088
738.938
767.779
761.635
752.666
738.842
767.085
760.964
752.794
740.477
767.645
761.524
752.688
738.948
766.89
760.778
752.68
740.475
767.327
761.243
752.728
739.379
766.614
760.518
752.525
740.506
766.736
760.689
752.652
740.101
766.242
760.167
752.386
740.726
765.933
759.905
752.314
740.871
765.313
759.22
751.496
742.576
762.944
756.872
749.11
740.913
765.287
759.194
751.501
742.616
762.907
756.829
749.077
740.883
765.181
759.091
751.398
742.507
762.792
756.708
748.961
740.81
765.027
758.94
751.346
742.493
762.643
756.549
748.839
740.714
764.766
758.697
751.25
742.49
762.398
756.292
748.636
740.555
763.671
757.797
750.46
741.842
761.534
755.58
748.087
740.047
764.294
758.292
750.881
742.181
762.076
756.009
748.423
740.368
762.91
757.217
749.94
741.364
760.738
754.974
747.597
739.649
762.06
756.607
749.466
740.966
759.785
754.286
747.075
739.219
716.567
700.658
687.606
677.433
670.05
715.624
699.939
686.957
676.815
669.451
716.551
700.635
687.593
677.426
670.047
715.614
699.936
686.967
676.835
669.475
716.603
700.628
687.588
677.429
670.053
716.044
700.333
687.36
677.226
669.861
715.405
699.81
686.901
676.804
669.459
715.185
699.699
686.85
676.783
669.452
716.475
700.545
687.538
677.397
670.03
715.704
699.503
686.505
676.4
669.063
716.488
700.397
687.357
677.21
669.843
715.638
699.364
686.348
676.24
668.902
716.213
700.384
687.422
677.305
669.948
715.379
699.253
686.299
676.218
668.893
716.029
700.285
687.374
677.285
669.941
715.087
699.036
686.132
676.08
668.768
716.566
700.379
687.29
677.118
669.741
715.617
699.219
686.145
676.007
668.658
716.505
700.306
687.224
677.059
669.686
715.578
699.178
686.11
675.977
668.63
716.357
700.123
687.055
676.903
669.538
715.445
699.049
685.997
675.876
668.536
715.935
699.617
686.569
676.441
669.09
715.121
698.754
685.731
675.628
668.298
715.243
698.931
685.919
675.819
668.49
696.749
694.284
696.38
693.862
695.534
692.957
694.178
691.672
691.995
689.869
686.433
683.662
688.945
686.544
684.245
681.177
682.245
679.12
665.353
635.094
611.84
594.971
584.214
666.05
635.459
611.902
594.91
583.966
665.026
634.871
611.685
594.856
584.12
665.627
635.147
611.732
594.722
583.842
664.358
634.423
611.375
594.625
583.928
664.979
634.72
611.44
594.506
583.663
663.318
633.735
610.897
594.263
583.623
664.022
634.095
611.009
594.181
583.389
661.839
632.774
610.221
593.744
583.18
662.786
633.302
610.454
593.757
583.026
658.26
630.367
608.494
592.416
582.061
658.904
630.761
608.663
592.41
581.921
660.082
631.638
609.415
593.124
582.653
661.012
632.189
609.675
593.169
582.541
656.519
629.082
607.539
591.673
581.433
656.872
629.29
607.591
591.592
581.243
654.807
627.777
606.55
590.893
580.767
654.981
627.814
606.505
590.744
580.506
755.951
752.593
755.483
759.009
764.684
762.462
764.642
762.091
761.125
758.508
761.214
758.975
710.759
711.481
713.303
716.202
720.121
724.858
710.671
711.356
713.088
715.809
719.399
723.643
709.129
706.821
709.945
707.75
711.983
710.047
715.257
713.794
719.641
718.612
724.744
723.62
729.982
734.913
739.26
742.967
745.835
747.927
728.208
732.701
736.813
740.343
743.129
745.085
713.542
714.645
714.451
712.954
710.168
714.275
715.388
715.199
713.704
710.914
716.124
717.256
717.079
715.584
712.782
719.068
720.231
720.074
718.582
715.761
723.052
724.264
724.139
722.656
719.811
727.88
729.164
729.092
727.628
724.761
713.455
714.562
714.371
712.877
710.094
714.152
715.269
715.084
713.593
710.806
715.912
717.048
716.876
715.388
712.59
718.677
719.845
719.695
718.211
715.397
722.33
723.547
723.43
721.957
719.123
726.657
727.943
727.878
726.425
723.572
711.894
712.989
712.793
711.303
708.531
709.563
710.649
710.453
708.974
706.224
712.722
713.827
713.636
712.147
709.371
710.506
711.601
711.411
709.933
707.177
714.79
715.914
715.735
714.246
711.455
712.835
713.952
713.774
712.295
709.523
718.112
719.27
719.111
717.623
714.81
716.637
717.792
717.636
716.158
713.36
722.568
723.778
723.653
722.172
719.333
721.534
722.747
722.631
721.162
718.335
727.765
729.05
728.98
727.518
724.652
726.638
727.93
727.872
726.425
723.575
733.123
734.51
734.52
733.097
730.214
738.204
739.731
739.86
738.507
735.625
742.744
744.459
744.752
743.507
740.648
746.703
748.656
749.158
748.055
745.244
749.852
752.041
752.735
751.764
749.003
752.133
754.457
755.245
754.335
751.593
731.33
732.708
732.717
731.302
728.436
735.953
737.452
737.561
736.204
733.335
740.221
741.866
742.102
740.823
737.965
743.921
745.728
746.104
744.915
742.078
746.866
748.816
749.311
748.198
745.381
748.918
750.945
751.497
750.417
747.602
711.15
712.656
715.269
718.974
723.717
729.303
711.059
712.521
715.032
718.529
722.881
727.834
709.534
707.244
711.163
709.024
714.028
712.19
718.155
716.846
723.414
722.575
729.492
728.695
735.214
740.664
745.083
748.112
749.423
749.222
732.97
737.752
741.719
744.521
745.964
746.091
713.935
715.039
714.842
713.342
710.551
715.457
716.569
716.374
714.868
712.064
718.102
719.231
719.042
717.528
714.703
721.853
723.011
722.833
721.312
718.456
726.663
727.862
727.705
726.178
723.286
732.335
733.595
733.474
731.949
729.017
713.846
714.952
714.759
713.262
710.473
715.324
716.439
716.248
714.745
711.944
717.865
718.998
718.814
717.305
714.483
721.41
722.571
722.4
720.886
718.037
725.824
727.028
726.88
725.363
722.482
730.859
732.121
732.011
730.5
727.587
712.301
713.397
713.198
711.705
708.929
709.989
711.074
710.877
709.394
706.64
713.949
715.053
714.856
713.356
710.566
711.788
712.882
712.686
711.197
708.426
716.847
717.969
717.778
716.269
713.454
714.99
716.105
715.915
714.415
711.618
721.024
722.176
721.997
720.478
717.629
719.703
720.851
720.674
719.163
716.327
726.354
727.55
727.391
725.864
722.974
725.51
726.705
726.551
725.03
722.15
732.522
733.779
733.654
732.124
729.189
731.719
732.975
732.854
731.331
728.405
738.356
739.7
739.638
738.13
735.165
743.941
745.402
745.431
743.969
740.987
748.532
750.154
750.321
748.944
745.973
751.794
753.638
754.001
752.76
749.838
753.388
755.482
756.06
754.977
752.129
753.406
755.69
756.433
755.479
752.703
736.096
737.438
737.384
735.895
732.955
740.998
742.445
742.476
741.028
738.076
745.108
746.69
746.833
745.455
742.509
748.073
749.813
750.096
748.812
745.893
749.677
751.573
751.997
750.813
747.936
749.914
751.921
752.445
751.339
748.502
750.661
750.688
741.371
735.319
735.756
733.937
739.353
755.033
753.734
753.766
750.076
749.029
750.457
746.018
745.696
743.233
754.905
753.799
749.315
748.497
751.293
750.159
746.47
745.906
741.384
740.829
745.759
745.355
752.715
751.932
754.357
751.976
751.247
753.618
747.066
742.328
748.372
757.183
760.351
761.575
761.134
759.009
755.58
758.302
759.38
758.693
756.067
744.636
746.077
746.084
744.601
741.604
738.45
739.78
739.704
738.186
735.214
738.908
740.261
740.207
738.704
735.737
737.045
738.361
738.276
736.756
733.795
742.563
743.958
743.928
742.427
739.435
760.838
763.694
764.738
764.105
761.909
759.353
762.072
762.988
762.242
759.89
758.077
760.411
761.172
760.205
757.392
755.093
757.5
758.207
757.288
754.629
752.686
754.492
754.811
753.529
750.579
754.407
756.459
756.986
755.854
752.972
749.51
751.171
751.371
750.014
747.047
749.247
750.974
751.237
749.93
746.99
746.651
748.253
748.411
747.035
744.078
760.612
763.429
764.445
763.79
761.548
757.91
760.097
760.738
759.684
756.821
752.916
754.668
754.939
753.621
750.649
752.024
753.704
753.912
752.55
749.561
755.03
756.902
757.275
756.025
753.075
753.79
755.57
755.864
754.56
751.589
749.92
751.531
751.682
750.285
747.295
749.303
750.861
750.964
749.534
746.53
744.687
746.175
746.229
744.784
741.806
744.087
745.525
745.533
744.054
741.062
749.188
750.785
750.926
749.526
746.539
748.741
750.292
750.39
748.958
745.958
758.858
761.823
762.946
762.402
760.199
756.442
758.906
759.775
758.913
756.17
759.301
761.854
762.797
762.038
759.567
755.978
758.087
758.673
757.587
754.721
755.012
756.916
757.321
756.098
753.163
757.768
759.992
760.68
759.667
756.826
750.522
752.137
752.289
750.89
747.895
745.615
747.077
747.101
745.627
742.628
751.89
753.562
753.762
752.394
749.404
747.725
750.629
751.861
751.495
749.654
745.984
752.789
752.493
757.656
757.825
752.153
751.61
757.381
756.989
747.466
741.939
747.368
742.41
746.771
746.972
743.257
752.99
752.671
757.918
758.116
752.306
751.755
757.598
757.111
747.241
741.437
747.165
742.053
746.603
746.935
742.959
752.997
752.655
758.043
758.275
752.267
751.695
757.67
757.16
747.052
740.026
746.972
740.842
746.405
746.76
741.952
752.03
751.694
757.18
757.426
751.28
750.625
756.791
756.218
745.708
738.274
745.69
739.153
745.19
745.614
740.494
750.211
749.891
755.323
755.568
749.482
748.729
754.94
754.37
743.867
736.912
743.884
737.609
743.464
743.759
738.917
746.893
746.598
751.872
752.108
746.256
745.611
751.503
750.98
740.941
734.562
741.013
735.214
740.661
740.981
736.529
765.592
765.551
762.05
762.136
765.357
765.155
761.846
761.559
768.023
769.784
767.844
769.473
767.703
767.304
768.85
765.905
765.82
762.336
762.457
765.557
765.267
762.071
761.747
768.451
769.898
768.202
769.513
767.922
767.404
768.846
766.096
765.953
762.497
762.665
765.603
765.233
762.159
761.741
768.365
769.236
768.062
768.886
767.647
767.103
768.261
765.228
765.044
761.644
761.839
764.635
764.167
761.268
760.832
767.249
767.567
766.904
767.242
766.367
765.729
766.649
763.258
763.056
759.732
759.935
762.571
761.977
759.35
758.88
765.051
765.064
764.681
764.797
764.087
763.38
764.297
759.592
759.386
756.166
756.37
758.904
758.371
755.785
755.332
761.347
761.736
760.995
761.445
760.484
759.872
760.936
721.32
722.214
723.904
725.378
727.596
729.121
732.685
733.95
731.616
733.056
727.629
729.066
724.709
726.049
722.355
723.312
728.771
730.59
731.378
733.952
734.976
737.316
737.408
740.453
718.158
712.911
719.119
714.224
720.576
715.521
722.18
717.411
726.014
723.051
728.617
724.87
718.663
721.801
734.649
739.507
737.19
740.886
740.342
744.506
743.366
746.596
729.287
734.309
732.032
735.909
725.011
729.877
706.868
703.325
709.402
705.721
709.491
705.026
712.564
708.459
713.223
707.177
717.952
712.317
721.706
716.126
726.06
720.358
730.023
730.802
734.199
734.557
738.232
739.217
741.648
742.626
727.039
725.995
722.219
722.053
737.81
737.735
741.139
740.434
744.787
745.557
747.781
748.111
731.073
729.323
734.726
732.08
720.033
713.273
717.557
710.035
714.895
708.028
713.49
705.724
724.364
717.745
720.961
713.544
728.278
721.714
723.713
716.377
698.31
690.496
697.076
689.356
700.723
693.412
698.407
691.021
704.666
698.976
700.606
694.489
724.19
733.763
715.519
709.02
702.07
732.229
722.13
711.783
704.855
697.402
734.959
725.924
717.228
709.062
701.153
683.327
679.679
679.662
676.43
686.949
682.769
682.096
678.603
693.135
688.414
686.225
682.075
729.68
725.565
718.693
713.299
708.577
703.08
700.576
695.203
690.231
684.978
732.987
729.543
722.909
717.289
713.53
707.272
704.294
697.669
692.83
686.035
727.974
721.787
732.544
727.018
737.908
735.673
742.064
740.567
722.518
715.456
718.089
710.592
736.484
730.94
739.152
733.876
745.493
744.056
748.06
746.915
726.58
719.383
729.235
722.216
711.22
702.912
697.469
687.65
707.633
698.896
695.005
685.345
714.536
706.488
699.817
690.163
717.69
709.555
703.033
693.873
678.307
676.589
673.759
677.668
676.791
674.192
680.643
678.532
675.502
679.425
678.368
675.546
685.261
682.51
679.087
682.035
680.53
677.339
720.562
715.022
709.343
707.538
702.712
697.76
697.796
693.632
689.312
690.852
687.323
683.235
684.17
682.134
678.372
724.809
718.533
712.063
709.864
703.438
697.169
699.806
694.125
688.555
691.778
687.4
682.5
684.456
681.835
677.474
745.962
747.884
747.862
750.403
741.016
743.368
743.157
746.14
746.612
750.395
747.104
750.627
747.905
751.287
748.842
752.012
751.761
749.915
752.869
750.683
752.139
753.699
752.621
755.233
748.77
751.621
753.114
755.654
754.727
757.136
754.728
757.222
754.185
757.501
753.584
756.634
754.869
758.246
754.853
757.91
755.514
759.19
756.713
759.99
757.673
760.485
759.843
762.056
750.319
751.956
752.869
754.687
745.081
746.48
747.99
749.498
756.234
758.421
753.952
755.983
755.371
757.092
757.881
759.249
750.771
752.145
753.493
754.509
758.479
760.581
760.812
762.527
758.985
761.78
760.795
762.355
757.09
760.171
758.639
760.533
760.871
763.259
762.72
763.965
762.948
764.853
764.447
765.397
753.709
751.686
756.965
754.924
753.874
751.733
757.281
755.158
754.087
752.157
757.774
755.868
748.244
741.998
752.138
755.2
758.344
740.564
746.727
750.289
753.288
756.677
743.232
749.318
753.674
756.562
758.764
748.416
744.038
751.649
747.415
748.742
744.542
752.199
748.122
749.503
745.482
753.26
749.425
738.602
735.087
745.135
741.525
748.818
745.136
751.643
747.916
754.882
751.224
741.901
739.639
748.135
745.844
752.371
749.724
755.053
751.909
757.01
753.271
752.007
750.857
754.783
754.297
746.334
745.355
749.596
749.473
758.079
756.737
755.657
753.767
757.006
757.06
759.164
759.455
752.221
752.611
754.602
755.274
760.108
759.238
762.068
761.408
760.019
757.782
760.739
757.582
757.806
755.083
758.989
755.475
761.899
760.116
762.303
759.518
763.56
761.974
763.772
761.345
738.193
732.458
727.153
740.264
733.77
728.431
739.029
733.204
727.762
741.23
734.676
729.092
740.244
734.483
728.929
742.797
735.895
729.916
730.444
724.855
719.03
736.755
730.933
724.927
740.301
734.217
728.079
742.815
736.731
730.756
744.508
737.2
730.661
735.785
729.638
722.975
741.804
735.498
728.739
745.16
738.479
731.491
746.625
739.613
732.555
746.19
738.473
731.265
758.405
755.019
747.446
734.303
757.337
753.749
745.941
732.698
758.945
755.449
747.854
734.596
758.338
754.544
746.661
733.374
759.63
755.98
748.682
735.789
760.042
755.995
748.223
735.049
760.006
755.57
747.25
733.742
760.93
756.035
747.355
733.71
761.312
757.072
749.455
736.369
761.123
756.686
749.683
737.881
760.113
756.269
749.367
737.216
759.807
755.767
749.251
738.141
762.336
757.704
749.495
735.923
762.298
757.506
750.098
738.015
763.406
758.388
749.873
736.336
763.358
758.245
750.61
738.563
758.142
755.082
748.168
735.791
756.512
753.863
747.92
737.099
758.306
755.169
748.351
736.06
756.598
753.854
747.943
737.228
758.539
755.256
748.646
736.695
756.972
754.009
748.084
737.494
758.639
755.168
748.869
737.6
757.334
754.134
748.276
737.972
758.53
754.853
748.822
738.479
754.073
751.784
746.407
738.718
751.375
749.313
743.897
736.813
754.385
751.95
746.537
738.872
751.696
749.466
743.984
736.876
754.973
752.27
746.733
739.013
752.281
749.759
744.145
737.015
755.829
752.755
747.106
739.342
753.079
750.184
744.408
737.213
756.944
753.398
747.562
739.705
754.02
750.679
744.697
737.42
759.137
754.689
748.22
740.042
756.471
752.141
745.637
738.073
758.048
754.033
747.872
739.848
755.238
751.395
745.156
737.749
760.144
755.316
748.55
740.21
757.649
752.866
746.09
738.427
761.133
755.97
748.998
740.574
758.763
753.587
746.574
738.812
714.958
699.687
687.006
677.035
669.743
714.072
698.99
686.363
676.416
669.14
715.091
699.754
687.049
677.066
669.769
714.285
699.129
686.469
676.506
669.222
715.314
699.853
687.11
677.113
669.81
714.938
699.662
686.946
676.952
669.65
714.634
699.342
686.613
676.613
669.312
714.895
699.523
686.742
676.712
669.397
715.476
699.945
687.168
677.153
669.841
714.821
698.978
686.182
676.187
668.899
715.31
699.694
686.924
676.923
669.622
714.583
698.74
685.965
675.986
668.707
715.523
699.968
687.166
677.135
669.817
714.777
698.894
686.078
676.073
668.781
715.79
700.141
687.286
677.227
669.897
714.877
698.911
686.056
676.03
668.73
714.893
699.386
686.682
676.718
669.434
713.903
698.215
685.533
675.606
668.352
714.928
699.366
686.645
676.675
669.39
713.928
698.205
685.511
675.58
668.324
714.94
699.281
686.537
676.56
669.273
713.942
698.164
685.454
675.516
668.258
714.672
698.87
686.111
676.137
668.857
713.794
697.974
685.252
675.311
668.053
714.08
698.244
685.497
675.54
668.275
664.436
662.356
665.484
663.347
667.326
664.948
669.706
666.896
672.159
668.856
676.198
672.412
674.159
670.436
678.191
674.565
680.25
676.969
642.528
619.379
600.521
586.256
576.777
642.869
619.566
600.501
586.149
576.517
643.005
619.629
600.677
586.368
576.873
643.292
619.75
600.645
586.197
576.583
643.916
620.13
600.997
586.599
577.066
644.174
620.233
600.951
586.418
576.768
645.163
620.854
601.469
586.942
577.352
645.315
620.893
601.381
586.729
577.026
646.643
621.781
602.093
587.4
577.735
646.568
621.677
601.91
587.121
577.356
649.875
624.063
603.738
588.666
578.828
649.53
623.751
603.401
588.279