/*--------------------------------*- C++ -*----------------------------------*\
  =========                 |
  \\      /  F ield         | OpenFOAM: The Open Source CFD Toolbox
   \\    /   O peration     | Website:  https://openfoam.org
    \\  /    A nd           | Version:  13
     \\/     M anipulation  |
\*---------------------------------------------------------------------------*/
FoamFile
{
    format      ascii;
    class       volScalarField;
    location    "109.831886";
    object      T;
}
// * * * * * * * * * * * * * * * * * * * * * * * * * * * * * * * * * * * * * //

dimensions      [0 0 0 1 0 0 0];

internalField   nonuniform List<scalar> 
5712
(
974.028
973.776
973.355
972.968
972.346
971.954
970.951
970.632
971.235
970.862
972.331
971.955
973.132
972.776
973.735
973.465
972.028
971.518
971.359
970.657
970.334
969.682
969.718
968.893
974.907
976.358
974.638
975.995
974.27
975.657
973.851
975.163
972.822
973.593
972.108
973.083
974.795
973.975
970.53
969.306
969.848
968.938
968.987
967.956
968.18
967.401
971.988
970.712
971.245
970.282
973.154
971.917
978.02
979.018
977.333
978.37
977.312
978.565
976.504
977.656
976.281
977.972
975.031
976.602
974.065
975.618
972.963
974.541
971.637
971.408
970.573
970.46
969.39
969.102
968.546
968.257
972.532
972.818
973.785
973.829
969.675
969.674
968.864
969.023
967.785
967.547
967.07
966.943
971.51
971.982
970.604
971.306
974.46
976.351
975.167
977.29
975.812
977.749
976.226
978.433
973.347
975.184
974.299
976.38
972.363
974.173
973.615
975.663
980.38
982.552
980.741
982.894
979.721
981.744
980.38
982.434
978.61
980.165
979.766
981.457
973.145
970.489
975.563
977.385
979.369
970.865
973.679
976.564
978.51
980.65
970.169
972.669
975.097
977.4
979.665
984.561
985.556
985.647
986.529
983.542
984.686
984.959
985.911
981.77
983.051
983.777
984.911
971.487
972.518
974.563
975.967
977.402
978.861
979.665
981.11
982.666
984.113
970.627
971.456
973.43
974.887
976.065
977.728
978.693
980.491
982.013
983.908
972.119
973.754
970.947
972.395
969.369
969.842
968.321
968.589
973.739
975.667
974.886
976.935
969.954
971.406
969.315
970.701
967.481
967.734
966.879
967.07
972.699
974.661
972.052
973.97
976.926
979.261
980.879
983.711
977.852
980.304
981.499
984.279
976.075
978.336
980.288
983.074
975.274
977.557
979.446
982.084
985.885
986.348
987.196
986.075
986.283
987.06
985.229
985.796
986.694
985.578
985.829
986.665
983.878
984.616
985.618
984.824
985.194
986.131
973.787
975.243
976.804
977.472
978.754
980.141
980.258
981.371
982.601
982.255
983.197
984.377
984.229
984.737
985.834
972.629
974.26
976.026
976.841
978.555
980.312
979.717
981.241
982.824
982.045
983.203
984.609
984.206
984.861
986.126
967.328
966.803
966.868
966.195
968.684
968.035
968.154
967.353
967.071
966.008
966.943
965.955
966.759
965.812
966.535
965.649
965.797
966.236
965.511
966.029
965.611
965.25
965.676
965.075
966.722
966.05
965.499
964.926
965.09
964.546
965.038
964.477
964.937
963.995
965.117
964.234
964.797
963.828
964.843
963.951
964.663
963.609
964.418
963.46
964.234
963.394
963.757
963.07
966.11
965.653
965.516
965.005
967.53
967.132
966.832
966.4
964.599
963.993
965.119
964.561
964.937
964.446
964.363
963.956
966.174
965.773
965.538
965.225
964.092
963.501
963.568
963.067
963.832
963.01
963.332
962.849
964.249
963.364
963.827
963.263
963.419
962.696
962.9
962.493
962.965
962.361
962.521
962.186
964.978
965.44
964.093
964.573
964.961
965.449
964.025
964.524
964.933
965.374
963.916
964.364
966.548
968.236
965.495
964.664
963.782
968.58
966.913
965.931
965.114
964.177
967.91
966.268
965.095
964.308
963.674
966.24
967.344
965.383
966.454
966.175
967.228
965.252
966.28
966.007
967.002
964.999
965.957
969.033
969.888
967.265
968.131
966.259
967.147
965.488
966.392
964.606
965.509
968.189
968.689
966.505
967.009
965.367
965.965
964.638
965.372
964.087
964.996
965.549
965.726
964.886
964.878
967.078
967.205
966.281
966.172
963.993
964.217
964.563
964.94
964.378
964.23
963.893
963.698
965.663
965.42
965.118
964.816
963.537
963.637
963.104
963.163
963.448
963.917
963.209
963.944
963.968
964.571
963.614
964.45
963.025
963.38
962.861
963.504
962.67
962.981
962.551
963.111
968.848
970.346
971.765
968.303
969.994
971.418
968.639
970.156
971.608
968.052
969.756
971.241
968.327
969.815
971.29
967.647
969.43
971.015
971.043
972.488
974.059
969.31
970.806
972.407
968.345
969.904
971.532
967.661
969.216
970.791
967.205
969.081
970.808
969.608
971.174
972.953
967.973
969.567
971.35
967.067
968.754
970.589
966.666
968.441
970.291
966.771
968.736
970.635
963.613
964.264
965.96
969.081
963.895
964.593
966.348
969.497
963.491
964.168
965.871
969.022
963.674
964.417
966.189
969.348
963.33
964.046
965.679
968.736
963.265
964.066
965.808
968.932
963.32
964.21
966.076
969.277
963.146
964.139
966.081
969.303
962.955
963.809
965.513
968.607
963.01
963.926
965.488
968.273
963.22
963.988
965.529
968.401
963.306
964.132
965.584
968.207
962.742
963.681
965.518
968.727
962.753
963.748
965.401
968.253
962.525
963.547
965.448
968.641
962.529
963.593
965.295
968.135
963.661
964.241
965.786
968.723
964.055
964.548
965.868
968.435
963.626
964.226
965.75
968.669
964.038
964.554
965.866
968.41
963.577
964.215
965.69
968.525
963.955
964.525
965.841
968.354
963.564
964.252
965.655
968.323
963.877
964.506
965.807
968.25
963.603
964.346
965.687
968.131
964.666
965.081
966.271
968.108
965.353
965.72
966.938
968.667
964.589
965.04
966.239
968.073
965.273
965.681
966.916
968.65
964.451
964.968
966.196
968.043
965.135
965.615
966.881
968.62
964.251
964.858
966.114
967.971
964.946
965.519
966.824
968.578
963.993
964.715
966.017
967.892
964.726
965.409
966.763
968.536
963.501
964.439
965.884
967.831
964.162
965.087
966.562
968.4
963.743
964.578
965.954
967.867
964.442
965.249
966.663
968.465
963.285
964.31
965.82
967.802
963.905
964.934
966.47
968.327
963.078
964.177
965.731
967.729
963.671
964.787
966.373
968.251
973.847
977.704
981.006
983.711
985.815
974.091
977.907
981.2
983.902
986.005
973.819
977.69
980.997
983.705
985.81
974.049
977.879
981.178
983.884
985.988
973.766
977.667
980.982
983.693
985.799
973.873
977.727
981.036
983.746
985.852
973.972
977.83
981.143
983.856
985.964
973.916
977.789
981.112
983.831
985.941
973.733
977.648
980.97
983.684
985.793
973.935
977.939
981.274
983.989
986.095
973.777
977.718
981.042
983.754
985.86
973.996
978.005
981.337
984.05
986.154
973.731
977.65
980.977
983.694
985.804
973.96
977.973
981.313
984.03
986.138
973.673
977.61
980.947
983.67
985.782
973.947
977.978
981.326
984.048
986.158
973.876
977.797
981.108
983.814
985.917
974.167
978.148
981.463
984.166
986.267
973.87
977.804
981.119
983.826
985.93
974.161
978.149
981.467
984.171
986.272
973.876
977.835
981.156
983.865
985.97
974.165
978.166
981.488
984.194
986.297
973.964
977.962
981.291
984.001
986.106
974.215
978.228
981.554
984.261
986.365
974.137
978.149
981.479
984.189
986.292
990.257
990.89
989.975
990.619
989.458
990.174
988.804
989.641
988.154
989.122
987.132
988.249
987.653
988.746
986.62
987.696
986.088
987.067
997.15
1004.96
1011.84
1017.36
1021.27
997.043
1004.91
1011.86
1017.42
1021.4
997.021
1004.89
1011.79
1017.33
1021.24
996.927
1004.86
1011.82
1017.41
1021.38
996.762
1004.74
1011.69
1017.25
1021.18
996.677
1004.72
1011.72
1017.34
1021.32
996.413
1004.53
1011.54
1017.14
1021.08
996.358
1004.52
1011.59
1017.24
1021.23
996.008
1004.25
1011.35
1017
1020.96
996.015
1004.29
1011.42
1017.11
1021.12
995.137
1003.59
1010.84
1016.59
1020.59
995.229
1003.69
1010.97
1016.74
1020.78
995.573
1003.93
1011.11
1016.8
1020.79
995.643
1004.01
1011.22
1016.95
1020.98
994.702
1003.24
1010.56
1016.35
1020.38
994.764
1003.32
1010.66
1016.49
1020.55
994.258
1002.88
1010.27
1016.11
1020.16
994.256
1002.92
1010.33
1016.22
1020.31
965.775
966.735
967.578
966.479
967.938
967.786
967.735
967.529
968.051
967.77
969.341
969.012
970.028
969.655
969.059
968.746
968.682
968.466
968.612
968.444
966.515
966.27
969.165
970.328
970.709
970.813
969.746
969.212
970.559
968.985
971.729
973.493
969.299
969.795
971.158
969.667
970.272
970.384
968.098
968.005
968.746
968.485
968.144
967.862
968.184
968.615
970.133
969.843
969.287
969.001
966.977
966.612
967.246
966.952
967.389
967.491
968.283
969.293
968.263
964.759
963.866
963.492
963.548
964.048
964.966
964.223
963.901
964.036
964.68
968.281
967.872
967.834
968.192
968.963
969.475
969.1
969.097
969.48
970.264
969.844
969.453
969.433
969.802
970.577
969.962
969.588
969.585
969.968
970.75
968.871
968.472
968.443
968.807
969.581
967.288
966.13
965.526
965.412
965.773
968.508
967.257
966.616
966.499
966.918
967.617
966.744
966.287
966.323
966.916
969.83
968.627
968.035
967.973
968.489
971.636
970.402
969.8
969.733
970.251
968.215
967.587
967.341
967.539
968.223
968.532
967.741
967.354
967.447
968.076
969.934
969.171
968.807
968.918
969.554
968.656
968.102
967.922
968.169
968.88
969.197
968.578
968.339
968.54
969.227
969.392
968.856
968.692
968.95
969.665
966.339
965.354
964.861
964.823
965.256
966.797
966.065
965.725
965.846
966.487
967.717
967.146
966.951
967.186
967.892
967.502
966.981
966.834
967.106
967.832
967.083
966.484
966.264
966.479
967.173
966.86
966.321
966.158
966.418
967.138
967.25
966.785
966.693
967.009
967.759
967.687
967.226
967.137
967.455
968.205
969.213
968.758
968.673
968.992
969.741
968.948
968.524
968.471
968.815
969.577
968.322
967.818
967.687
967.97
968.701
968.066
967.597
967.499
967.809
968.554
965.272
964.355
963.947
963.976
964.447
965.389
964.685
964.388
964.542
965.2
965.834
965.017
964.622
964.679
965.221
965.861
965.247
965.017
965.224
965.915
966.358
965.793
965.606
965.847
966.556
966.309
965.606
965.289
965.426
966.075
967.34
966.865
966.763
967.07
967.815
968.395
967.969
967.914
968.257
969.02
967.294
966.789
966.657
966.941
967.674
966.38
966.917
966.421
967.016
965.102
965.723
965.08
965.63
966.467
966.534
967.037
966.916
965.117
965.147
965.686
965.513
967.731
969.058
968.214
969.489
967.736
968.937
968.302
969.481
968.321
967.821
968.034
967.706
968.753
969.257
967.735
968.328
967.462
968.117
966.429
967.054
966.052
966.662
968.997
969.636
968.604
969.341
969.962
970.737
970.277
971.339
970.651
971.662
970.188
971.451
970.671
971.79
969.966
971.678
970.293
971.815
970.946
972.505
971.841
973.433
966.948
967.287
967.215
967.602
965.265
965.376
965.55
965.647
968.817
969.793
968.577
969.463
967.646
967.984
968.202
968.46
965.968
965.997
966.479
966.424
969.256
970.192
969.863
970.711
970.486
972.381
972.071
974.216
970.327
972.368
971.788
974.05
970.911
972.725
972.46
974.545
971.557
973.347
973.002
975.051
970.364
970.983
971.546
972.524
970.265
970.773
971.719
972.657
970.081
970.354
972.03
972.805
966.882
965.145
968.589
970.423
972.765
965.09
966.742
968.446
970.378
973.171
965.236
967.104
969.26
971.622
974.069
971.993
972.453
975.104
976.021
971.521
971.982
974.917
975.834
970.818
971.2
974.689
975.613
965.127
965.377
966.89
967.19
968.736
969.042
970.968
971.36
974.981
975.969
965.244
965.503
967.301
967.917
969.646
970.431
972.372
973.314
976.059
977.259
967.783
968.848
968.062
969.152
965.44
965.543
965.677
965.717
970.713
972.279
970.367
971.852
968.301
969.551
968.772
970.107
965.961
966.07
966.379
966.532
970.958
972.716
971.483
973.347
973.891
975.921
977.945
980.519
973.362
975.33
977.214
979.62
974.295
976.398
978.566
981.219
974.672
976.917
978.897
981.503
972.633
973.035
975.435
975.5
972.176
972.621
975.317
975.344
971.501
972.144
975.199
975.261
965.893
966.806
967.751
968.613
969.535
970.284
971.764
972.471
975.417
975.432
966.02
967.004
968.763
969.672
971.18
971.867
973.624
973.943
976.154
975.988
962.994
962.954
963.546
963.308
963.935
963.896
964.517
964.268
962.338
961.869
962.862
962.375
962.353
961.917
962.92
962.45
962.823
962.342
962.748
962.391
962.015
962.471
963.82
964.429
964.774
965.371
963.493
964.185
963.276
963.892
963.121
963.754
961.591
961.417
962.082
961.881
961.595
961.377
962.111
961.847
961.627
961.327
962.013
961.654
962.597
962.174
963.157
962.625
962.787
962.75
963.042
962.928
963.857
963.838
964.131
964.064
962.319
962.165
962.087
962.023
963.417
963.197
963.863
963.536
964.526
964.375
965
964.755
962.673
962.396
963.096
962.695
961.806
961.461
961.733
961.558
961.598
961.328
961.619
961.482
962.14
961.714
961.93
961.707
962.535
962.026
962.194
961.92
961.378
961.463
961.238
961.379
961.419
961.512
961.243
961.398
961.513
961.591
961.274
961.413
962.692
963.743
962.008
961.557
961.347
963.753
962.746
962.076
961.629
961.445
963.723
962.679
961.981
961.598
961.488
961.816
962.43
961.799
962.46
961.812
962.386
961.767
962.401
961.819
962.329
961.719
962.3
963.76
964.004
962.754
963.055
962.144
962.52
961.766
962.204
961.681
962.209
963.664
963.765
962.64
962.783
962.004
962.26
961.695
962.086
961.692
962.219
962.605
962.568
962.812
962.664
963.676
963.546
963.925
963.66
962.155
962.223
961.987
962.143
963.144
962.913
963.483
963.267
964.285
963.94
964.662
964.334
962.435
962.446
962.738
962.771
961.843
962.14
961.885
962.401
961.716
962.084
961.763
962.313
962.052
962.319
962.063
962.584
962.334
962.619
962.286
962.815
963.18
963.884
963.422
964.252
963.086
963.841
963.346
964.225
962.997
963.831
963.23
964.248
964.516
965.433
963.62
964.558
963.116
964.061
962.862
963.835
963.144
964.343
964.182
965.238
963.275
964.378
962.875
964.03
962.85
964.055
963.255
964.611
961.836
963.072
965.151
968.535
962.264
963.496
965.598
968.988
961.807
963.037
965.108
968.517
962.216
963.435
965.519
968.897
961.784
963.005
964.975
968.274
962.039
963.238
965.238
968.546
962.497
963.653
965.692
969.014
962.847
963.936
965.941
969.206
961.895
963.089
965.011
968.258
962.106
963.31
965.049
967.947
961.832
963.051
964.883
967.963
962.066
963.293
965
967.796
962.066
963.221
965.193
968.493
962.199
963.368
965.125
968.038
962.291
963.387
965.335
968.56
962.341
963.464
965.201
968.061
961.697
962.931
964.897
968.12
961.894
963.123
964.9
967.764
961.723
962.955
964.891
968.094
961.935
963.165
964.927
967.764
961.788
963.017
964.882
967.99
961.987
963.22
964.96
967.754
961.916
963.147
964.905
967.825
962.06
963.296
964.991
967.702
962.097
963.335
964.994
967.656
962.354
963.579
965.256
967.34
962.958
964.184
965.891
967.842
962.352
963.58
965.251
967.327
962.958
964.189
965.895
967.847
962.359
963.594
965.268
967.347
962.968
964.208
965.917
967.86
962.371
963.615
965.271
967.343
962.979
964.232
965.937
967.876
962.398
963.651
965.283
967.338
963.007
964.275
965.975
967.908
962.581
963.816
965.439
967.473
963.13
964.394
966.072
968.004
962.472
963.724
965.356
967.402
963.044
964.318
966.01
967.941
962.724
963.929
965.544
967.572
963.276
964.51
966.169
968.083
962.891
964.049
965.638
967.651
963.463
964.646
966.273
968.169
973.522
977.505
980.881
983.627
985.75
973.781
977.715
981.079
983.821
985.942
973.523
977.508
980.883
983.628
985.75
973.777
977.711
981.073
983.813
985.933
973.504
977.507
980.882
983.625
985.746
973.648
977.588
980.949
983.687
985.807
973.815
977.733
981.082
983.815
985.932
973.857
977.752
981.089
983.815
985.929
973.53
977.524
980.893
983.632
985.752
973.755
977.83
981.206
983.943
986.059
973.538
977.573
980.951
983.693
985.813
973.781
977.875
981.256
983.995
986.112
973.591
977.564
980.923
983.658
985.776
973.837
977.898
981.266
983.999
986.114
973.624
977.58
980.928
983.657
985.772
973.904
977.952
981.31
984.037
986.149
973.536
977.591
980.979
983.727
985.849
973.816
977.937
981.332
984.078
986.198
973.55
977.61
980.998
983.745
985.866
973.825
977.948
981.342
984.087
986.207
973.589
977.661
981.048
983.793
985.913
973.859
977.983
981.374
984.118
986.237
973.707
977.808
981.195
983.937
986.056
973.944
978.066
981.453
984.194
986.312
973.899
978.006
981.39
984.129
986.245
981.704
982.426
981.803
982.542
982.03
982.789
982.393
983.137
982.98
983.624
984.475
985.315
983.806
984.536
985.051
985.975
985.571
986.508
990.888
1000.35
1008.29
1014.52
1018.77
990.685
1000.25
1008.29
1014.56
1018.89
990.98
1000.42
1008.34
1014.55
1018.8
990.805
1000.34
1008.34
1014.63
1018.93
991.166
1000.55
1008.44
1014.63
1018.87
990.986
1000.47
1008.43
1014.7
1018.99
991.457
1000.76
1008.59
1014.75
1018.97
991.254
1000.65
1008.57
1014.81
1019.09
991.871
1001.04
1008.81
1014.93
1019.12
991.6
1000.89
1008.75
1014.95
1019.21
992.863
1001.75
1009.35
1015.36
1019.5
992.687
1001.65
1009.32
1015.4
1019.59
992.359
1001.38
1009.06
1015.13
1019.3
992.098
1001.22
1009
1015.14
1019.38
993.341
1002.13
1009.65
1015.61
1019.71
993.248
1002.08
1009.66
1015.67
1019.82
993.807
1002.51
1009.96
1015.86
1019.94
993.762
1002.51
1010
1015.94
1020.07
964.994
965.901
965.239
964.292
963.018
963.553
963.007
963.616
963.949
964.581
963.948
964.493
974.641
974.47
974.049
973.381
972.481
971.398
974.713
974.551
974.15
973.524
972.702
971.736
975.074
975.724
974.881
975.504
974.408
974.968
973.65
974.094
972.636
972.977
971.457
971.825
970.237
969.138
968.196
967.422
966.844
966.426
970.708
969.711
968.816
968.066
967.486
967.082
973.844
973.53
973.585
974.011
974.81
973.672
973.356
973.409
973.834
974.633
973.247
972.927
972.976
973.399
974.197
972.573
972.246
972.29
972.708
973.505
971.663
971.326
971.36
971.772
972.567
970.565
970.213
970.231
970.632
971.422
973.916
973.601
973.655
974.08
974.878
973.752
973.434
973.486
973.91
974.708
973.347
973.025
973.073
973.494
974.291
972.714
972.386
972.427
972.844
973.64
971.882
971.543
971.575
971.984
972.777
970.903
970.549
970.565
970.964
971.753
974.279
973.965
974.021
974.447
975.246
974.931
974.618
974.674
975.1
975.896
974.085
973.769
973.823
974.248
975.046
974.709
974.395
974.449
974.873
975.669
973.608
973.289
973.339
973.762
974.559
974.169
973.851
973.901
974.323
975.119
972.843
972.517
972.561
972.98
973.776
973.288
972.962
973.005
973.422
974.217
971.818
971.481
971.515
971.927
972.721
972.158
971.82
971.852
972.261
973.053
970.624
970.272
970.29
970.69
971.48
970.99
970.635
970.649
971.046
971.834
969.382
969.006
969.002
969.384
970.167
968.253
967.843
967.806
968.163
968.934
967.268
966.811
966.728
967.051
967.805
966.434
965.916
965.775
966.053
966.784
965.786
965.206
965.012
965.25
965.959
965.32
964.705
964.485
964.703
965.4
969.855
969.479
969.474
969.857
970.639
968.831
968.427
968.394
968.755
969.527
967.903
967.462
967.394
967.728
968.487
967.114
966.632
966.526
966.83
967.574
966.497
965.978
965.838
966.118
966.849
966.071
965.533
965.377
965.644
966.37
974.558
974.221
973.633
972.796
971.725
970.467
974.631
974.303
973.737
972.948
971.967
970.854
974.988
975.633
974.622
975.231
973.974
974.512
973.038
973.448
971.843
972.142
970.463
970.755
969.143
967.935
966.975
966.339
966.086
966.152
969.708
968.651
967.787
967.188
966.889
966.87
973.761
973.447
973.503
973.929
974.729
973.423
973.108
973.163
973.589
974.389
972.831
972.513
972.566
972.991
973.792
971.99
971.667
971.716
972.139
972.939
970.911
970.58
970.622
971.041
971.841
969.64
969.298
969.328
969.74
970.538
973.834
973.519
973.573
973.999
974.798
973.505
973.188
973.242
973.667
974.467
972.935
972.616
972.667
973.092
973.891
972.14
971.816
971.863
972.284
973.084
971.151
970.819
970.858
971.275
972.073
970.027
969.682
969.71
970.119
970.915
974.193
973.88
973.936
974.362
975.161
974.84
974.528
974.584
975.01
975.807
973.826
973.511
973.567
973.993
974.792
974.437
974.123
974.179
974.605
975.403
973.175
972.858
972.911
973.336
974.136
973.713
973.397
973.45
973.875
974.673
972.233
971.911
971.96
972.383
973.183
972.643
972.321
972.37
972.792
973.591
971.03
970.7
970.742
971.161
971.961
971.329
970.998
971.039
971.457
972.256
969.638
969.296
969.328
969.74
970.539
969.93
969.588
969.618
970.029
970.827
968.299
967.938
967.951
968.35
969.144
967.066
966.678
966.665
967.044
967.83
966.069
965.641
965.59
965.939
966.71
965.376
964.891
964.785
965.093
965.842
965.05
964.497
964.332
964.595
965.319
965.055
964.451
964.242
964.47
965.173
968.864
968.501
968.512
968.909
969.7
967.784
967.397
967.384
967.762
968.546
966.889
966.469
966.424
966.778
967.55
966.253
965.792
965.708
966.032
966.789
965.913
965.411
965.289
965.583
966.324
965.864
965.332
965.183
965.456
966.185
966.037
965.898
967.783
969.14
969.227
969.542
968.298
965.251
965.642
965.427
966.551
966.417
966.226
967.093
967.265
967.781
965.162
965.274
966.252
966.347
965.76
965.924
966.664
966.848
968.075
968.077
967.052
967.045
965.577
965.588
965.15
965.52
965.663
965.253
966.568
967.657
966.325
964.311
963.461
963.118
963.201
963.727
964.611
963.889
963.588
963.74
964.394
966.919
966.537
966.53
966.914
967.702
968.299
967.942
967.959
968.361
969.157
968.381
968.018
968.029
968.425
969.217
968.704
968.35
968.37
968.773
969.569
967.444
967.072
967.076
967.467
968.259
963.731
962.963
962.661
962.783
963.311
964.167
963.432
963.164
963.32
963.896
964.304
963.687
963.467
963.688
964.387
965.228
964.572
964.361
964.569
965.233
965.462
964.985
964.888
965.204
965.957
965.192
964.648
964.493
964.763
965.491
966.177
965.737
965.674
966.014
966.78
966.331
965.872
965.79
966.117
966.874
966.879
966.453
966.401
966.75
967.52
963.668
962.916
962.626
962.757
963.304
964.206
963.631
963.446
963.693
964.407
965.314
964.853
964.77
965.097
965.856
965.427
964.985
964.921
965.261
966.028
964.789
964.298
964.187
964.493
965.241
964.98
964.513
964.425
964.748
965.505
965.76
965.336
965.289
965.642
966.416
965.958
965.547
965.512
965.876
966.654
967.2
966.804
966.782
967.155
967.936
967.213
966.831
966.823
967.206
967.993
966.152
965.731
965.685
966.039
966.812
966.157
965.747
965.714
966.078
966.856
963.961
963.164
962.847
962.954
963.496
964.408
963.756
963.511
963.709
964.394
963.862
963.183
962.916
963.081
963.695
964.479
963.924
963.757
964.017
964.739
964.684
964.185
964.067
964.366
965.111
964.174
963.589
963.393
963.629
964.339
965.665
965.24
965.192
965.545
966.318
966.788
966.401
966.389
966.769
967.555
965.407
964.968
964.906
965.248
966.016
966.774
966.029
965.725
965.836
966.326
967.293
966.205
966.265
964.902
964.876
966.327
966.44
964.942
965.004
967.612
969.087
967.623
968.949
967.758
967.686
968.705
966.167
966.234
964.85
964.815
966.304
966.418
964.902
964.988
967.69
969.247
967.697
969.071
967.825
967.717
968.812
966.186
966.261
964.839
964.795
966.338
966.458
964.906
964.997
967.763
969.649
967.772
969.419
967.902
967.787
969.106
966.459
966.533
965.082
965.034
966.617
966.761
965.153
965.26
968.138
970.132
968.131
969.888
968.244
968.112
969.513
966.943
967.014
965.571
965.522
967.098
967.268
965.641
965.747
968.632
970.499
968.617
970.305
968.71
968.612
969.941
967.811
967.877
966.464
966.417
967.944
968.086
966.531
966.625
969.407
971.129
969.378
970.946
969.454
969.348
970.578
962.812
962.804
963.74
963.736
962.825
962.843
963.76
963.793
962.143
961.639
962.174
961.716
962.184
962.27
961.869
962.747
962.751
963.682
963.668
962.79
962.83
963.719
963.76
962.049
961.638
962.1
961.733
962.148
962.264
961.896
962.719
962.739
963.662
963.636
962.801
962.861
963.718
963.783
962.097
961.832
962.162
961.917
962.243
962.365
962.068
962.961
962.991
963.9
963.867
963.068
963.153
963.966
964.035
962.401
962.275
962.477
962.354
962.589
962.735
962.497
963.472
963.508
964.399
964.363
963.604
963.721
964.466
964.543
962.97
962.923
963.053
962.986
963.18
963.341
963.105
964.407
964.443
965.313
965.277
964.54
964.641
965.381
965.454
963.914
963.77
963.992
963.839
964.098
964.235
963.961
974.074
973.835
973.365
972.977
972.353
971.96
970.956
970.637
971.241
970.867
972.339
971.962
973.142
972.786
973.791
973.534
972.033
971.521
971.364
970.66
970.337
969.684
969.722
968.896
974.942
976.383
974.685
976.032
974.278
975.664
973.857
975.167
972.827
973.598
972.111
973.086
974.8
973.979
970.533
969.307
969.85
968.94
968.99
967.958
968.182
967.402
971.991
970.714
971.247
970.283
973.157
971.918
978.043
979.04
977.367
978.404
977.316
978.568
976.506
977.658
976.284
977.975
975.034
976.605
974.067
975.62
972.965
974.542
971.639
971.41
970.575
970.461
969.392
969.103
968.548
968.258
972.535
972.82
973.787
973.831
969.677
969.676
968.865
969.024
967.786
967.549
967.072
966.944
971.512
971.983
970.606
971.307
974.462
976.352
975.169
977.292
975.814
977.751
976.228
978.434
973.349
975.186
974.3
976.381
972.365
974.174
973.616
975.664
980.408
982.583
980.76
982.913
979.723
981.745
980.383
982.436
978.612
980.166
979.768
981.458
973.146
970.491
975.565
977.387
979.37
970.866
973.68
976.565
978.511
980.652
970.17
972.671
975.099
977.402
979.667
984.592
985.588
985.666
986.546
983.543
984.685
984.96
985.911
981.771
983.052
983.778
984.912
971.488
972.519
974.564
975.968
977.403
978.862
979.667
981.111
982.668
984.114
970.628
971.457
973.431
974.888
976.067
977.729
978.695
980.492
982.014
983.909
972.121
973.755
970.948
972.396
969.37
969.843
968.323
968.59
973.741
975.668
974.888
976.936
969.955
971.407
969.316
970.702
967.482
967.735
966.88
967.07
972.7
974.662
972.053
973.971
976.927
979.262
980.88
983.712
977.853
980.306
981.5
984.281
976.076
978.337
980.289
983.075
975.275
977.558
979.447
982.084
985.913
986.373
987.219
986.092
986.299
987.074
985.228
985.796
986.694
985.579
985.831
986.667
983.878
984.617
985.619
984.825
985.195
986.133
973.788
975.244
976.805
977.473
978.755
980.142
980.259
981.372
982.602
982.256
983.198
984.378
984.231
984.738
985.835
972.63
974.261
976.026
976.842
978.556
980.313
979.719
981.242
982.825
982.046
983.204
984.61
984.208
984.862
986.128
967.329
966.804
966.87
966.196
968.686
968.036
968.157
967.355
967.088
966.026
966.968
965.981
966.76
965.813
966.535
965.649
965.798
966.237
965.512
966.029
965.612
965.251
965.678
965.076
966.724
966.051
965.5
964.926
965.091
964.547
965.038
964.478
964.951
964.004
965.14
964.252
964.798
963.829
964.843
963.951
964.663
963.609
964.418
963.46
964.234
963.395
963.757
963.07
966.111
965.654
965.517
965.006
967.532
967.133
966.833
966.401
964.6
963.994
965.12
964.562
964.938
964.447
964.364
963.957
966.175
965.774
965.539
965.226
964.093
963.502
963.569
963.067
963.832
963.01
963.332
962.85
964.249
963.364
963.827
963.264
963.42
962.697
962.9
962.494
962.965
962.362
962.521
962.186
964.986
965.445
964.098
964.576
964.961
965.45
964.026
964.525
964.934
965.374
963.917
964.365
966.549
968.237
965.496
964.665
963.782
968.581
966.914
965.932
965.114
964.178
967.912
966.269
965.096
964.309
963.675
966.244
967.349
965.384
966.456
966.175
967.228
965.252
966.281
966.007
967.002
965
965.958
969.034
969.889
967.266
968.132
966.26
967.147
965.489
966.392
964.606
965.509
968.19
968.69
966.506
967.01
965.368
965.966
964.639
965.372
964.088
964.997
965.55
965.727
964.887
964.879
967.08
967.206
966.282
966.173
963.993
964.217
964.564
964.941
964.379
964.231
963.894
963.699
965.664
965.421
965.118
964.817
963.538
963.638
963.105
963.163
963.449
963.918
963.209
963.945
963.969
964.571
963.615
964.45
963.026
963.381
962.862
963.504
962.671
962.981
962.551
963.112
968.855
970.354
971.773
968.305
969.998
971.422
968.639
970.156
971.608
968.054
969.756
971.242
968.327
969.815
971.29
967.648
969.431
971.016
971.044
972.489
974.059
969.311
970.807
972.408
968.345
969.905
971.533
967.661
969.216
970.791
967.206
969.081
970.809
969.609
971.174
972.953
967.973
969.567
971.351
967.067
968.755
970.59
966.666
968.441
970.292
966.772
968.737
970.636
963.62
964.269
965.967
969.089
963.909
964.605
966.359
969.509
963.492
964.168
965.871
969.022
963.674
964.417
966.188
969.347
963.33
964.046
965.679
968.736
963.265
964.066
965.808
968.931
963.32
964.21
966.076
969.276
963.146
964.139
966.081
969.303
962.956
963.809
965.513
968.607
963.01
963.926
965.488
968.272
963.221
963.988
965.529
968.401
963.307
964.133
965.584
968.207
962.742
963.681
965.518
968.727
962.753
963.748
965.401
968.253
962.525
963.547
965.448
968.641
962.53
963.593
965.295
968.135
963.663
964.243
965.788
968.728
964.055
964.547
965.867
968.437
963.627
964.227
965.75
968.669
964.038
964.554
965.867
968.41
963.578
964.215
965.691
968.525
963.956
964.525
965.841
968.354
963.564
964.252
965.655
968.323
963.878
964.506
965.807
968.25
963.603
964.346
965.687
968.132
964.664
965.078
966.268
968.108
965.351
965.716
966.934
968.663
964.59
965.04
966.24
968.073
965.274
965.682
966.916
968.651
964.452
964.968
966.196
968.043
965.135
965.616
966.881
968.62
964.252
964.859
966.115
967.971
964.947
965.52
966.824
968.578
963.993
964.716
966.017
967.892
964.726
965.41
966.763
968.536
963.501
964.439
965.884
967.831
964.163
965.087
966.562
968.4
963.743
964.579
965.954
967.867
964.443
965.249
966.663
968.465
963.285
964.31
965.82
967.802
963.905
964.935
966.47
968.327
963.079
964.177
965.731
967.729
963.671
964.787
966.373
968.251
973.85
977.705
981.007
983.712
985.816
974.099
977.912
981.205
983.907
986.01
973.819
977.69
980.997
983.704
985.809
974.047
977.877
981.177
983.882
985.987
973.766
977.666
980.982
983.692
985.798
973.872
977.726
981.035
983.745
985.852
973.971
977.829
981.143
983.855
985.963
973.916
977.788
981.112
983.83
985.94
973.733
977.648
980.97
983.684
985.792
973.934
977.938
981.274
983.989
986.095
973.777
977.718
981.041
983.753
985.86
973.996
978.004
981.337
984.049
986.154
973.731
977.649
980.976
983.694
985.803
973.96
977.972
981.312
984.03
986.137
973.672
977.609
980.946
983.669
985.781
973.947
977.977
981.326
984.048
986.157
973.875
977.795
981.105
983.811
985.914
974.164
978.143
981.458
984.161
986.262
973.871
977.804
981.119
983.826
985.93
974.161
978.149
981.467
984.171
986.273
973.877
977.835
981.156
983.865
985.97
974.165
978.166
981.488
984.194
986.297
973.964
977.962
981.29
984.001
986.106
974.215
978.228
981.554
984.261
986.364
974.137
978.149
981.478
984.188
986.292
990.273
990.901
989.975
990.621
989.459
990.175
988.805
989.642
988.155
989.123
987.133
988.25
987.654
988.747
986.621
987.697
986.088
987.068
997.158
1004.97
1011.84
1017.36
1021.27
997.047
1004.91
1011.86
1017.42
1021.4
997.021
1004.89
1011.79
1017.33
1021.24
996.929
1004.86
1011.82
1017.41
1021.38
996.762
1004.74
1011.69
1017.25
1021.18
996.678
1004.72
1011.72
1017.34
1021.32
996.414
1004.53
1011.54
1017.14
1021.08
996.359
1004.52
1011.59
1017.24
1021.23
996.009
1004.26
1011.35
1017
1020.96
996.016
1004.29
1011.42
1017.11
1021.12
995.138
1003.59
1010.84
1016.59