/*--------------------------------*- C++ -*----------------------------------*\
  =========                 |
  \\      /  F ield         | OpenFOAM: The Open Source CFD Toolbox
   \\    /   O peration     | Website:  https://openfoam.org
    \\  /    A nd           | Version:  12
     \\/     M anipulation  |
\*---------------------------------------------------------------------------*/
FoamFile
{
    format      ascii;
    class       volScalarField;
    location    "185";
    object      T;
}
// * * * * * * * * * * * * * * * * * * * * * * * * * * * * * * * * * * * * * //

dimensions      [];

internalField   nonuniform List<scalar> 
4480
(
2.27132e-11
4.69741e-09
1.23763e-05
0.00113147
0.0117121
0.0412154
0.0878085
0.14398
0.202776
0.259593
0.311933
0.358721
0.399714
0.435116
0.465335
0.490853
0.512157
0.529705
0.543909
0.555129
0.563685
0.569847
0.57385
0.57589
0.576138
0.574741
0.571824
0.568073
0.564273
0.560404
0.556444
0.552374
0.54817
0.543811
0.539276
0.534541
0.529583
0.524377
0.518893
0.513107
0.506988
0.500501
0.493611
0.486284
0.478477
0.470144
0.461236
0.451702
0.441478
0.430493
0.418676
0.40594
0.39218
0.377293
0.361162
0.343669
0.324714
0.304222
0.282176
0.258651
0.23384
0.208081
0.181858
0.15578
0.13053
0.106797
0.0851874
0.0661633
0.0499856
0.0367084
0.0261928
0.018156
0.0122262
0.00800014
0.00508858
0.00314782
0.00189497
0.00111089
0.000634665
0.000353643
0.000192352
0.000102214
5.31111e-05
2.81619e-05
1.57203e-05
9.42069e-06
6.08853e-06
4.19999e-06
3.04222e-06
2.28243e-06
1.75962e-06
1.38966e-06
1.12388e-06
9.31566e-07
7.92287e-07
6.92174e-07
6.21885e-07
5.75294e-07
5.4869e-07
5.40275e-07
5.4999e-07
5.796e-07
6.33101e-07
7.17596e-07
8.44809e-07
1.03379e-06
1.3156e-06
1.74154e-06
2.39781e-06
3.43224e-06
5.1032e-06
7.87135e-06
1.25728e-05
2.07499e-05
3.52869e-05
6.16364e-05
0.000110184
0.000200814
0.000371793
0.000698218
0.0013364
0.00264095
0.00545446
0.012092
0.0317929
0.0878695
0.16628
0.269778
0.19792
0.0426543
0.0096805
0.00135924
0.000162811
1.90434e-05
1.91575e-06
1.48653e-07
8.24725e-09
2.6366e-10
3.72996e-12
1.30313e-14
1.74784e-11
5.12789e-07
0.000321514
0.0114337
0.0621634
0.149913
0.25134
0.348882
0.434606
0.506683
0.566067
0.614619
0.654257
0.68664
0.713113
0.734751
0.75239
0.76669
0.778172
0.787256
0.794273
0.799487
0.803115
0.805326
0.806264
0.806036
0.804733
0.802264
0.79873
0.794226
0.788845
0.782676
0.775808
0.768319
0.76028
0.751761
0.742819
0.733504
0.723855
0.713909
0.70369
0.693218
0.682498
0.671538
0.660335
0.648875
0.637144
0.625118
0.612765
0.600051
0.586931
0.573357
0.559265
0.544586
0.529246
0.513153
0.496217
0.478335
0.459409
0.439352
0.418089
0.395586
0.37184
0.346911
0.32092
0.294056
0.266575
0.238807
0.211145
0.184022
0.157897
0.133222
0.110406
0.0897849
0.0715866
0.0559227
0.0427806
0.0320369
0.0234813
0.0168435
0.0118252
0.00812723
0.00546949
0.00362845
0.00238636
0.00156371
0.00102684
0.000680011
0.00045701
0.000313454
0.000220365
0.000159229
0.000118403
9.06302e-05
7.13934e-05
5.78671e-05
4.82652e-05
4.14424e-05
3.66585e-05
3.34359e-05
3.14764e-05
3.06141e-05
3.07924e-05
3.20574e-05
3.4571e-05
3.86412e-05
4.47833e-05
5.38229e-05
6.70723e-05
8.66226e-05
0.000115841
0.000160211
0.000228774
0.000336596
0.000509023
0.000789042
0.00125005
0.00201823
0.00331256
0.00551961
0.00934076
0.0160797
0.0281455
0.0498677
0.0883559
0.150345
0.231084
0.306314
0.229229
0.0652745
0.0162779
0.00347518
0.000633757
9.74574e-05
1.23154e-05
1.17909e-06
8.03847e-08
3.23942e-09
6.08701e-11
3.40388e-13
6.79169e-09
1.56794e-05
0.00313993
0.0494038
0.16473
0.303939
0.43075
0.53328
0.61241
0.672894
0.719541
0.756107
0.785235
0.808733
0.827839
0.843433
0.856156
0.866497
0.874839
0.881484
0.886681
0.890622
0.893472
0.895357
0.896382
0.896626
0.896155
0.894889
0.892803
0.889939
0.886335
0.882019
0.877027
0.871382
0.865124
0.85828
0.850887
0.842981
0.834596
0.825766
0.816524
0.8069
0.796923
0.786616
0.775998
0.76509
0.753896
0.742426
0.73068
0.718653
0.706338
0.693715
0.68076
0.667445
0.653737
0.639583
0.624937
0.609735
0.593906
0.577376
0.560064
0.54189
0.522768
0.50263
0.481412
0.459072
0.435596
0.411001
0.385347
0.358751
0.331374
0.303444
0.27524
0.247089
0.219353
0.192413
0.166647
0.142402
0.119981
0.0996198
0.0814697
0.0655992
0.0519897
0.0406213
0.0313499
0.0239317
0.0181019
0.0135958
0.010165
0.00758701
0.00567115
0.00425967
0.00322622
0.00247232
0.00192313
0.00152287
0.00123073
0.00101727
0.000861522
0.000748728
0.000668641
0.00061433
0.000581339
0.000567148
0.000570919
0.000593407
0.000637132
0.000706816
0.000810133
0.000958988
0.00117155
0.00147547
0.00191283
0.00254802
0.0034798
0.00486014
0.0069234
0.0100311
0.0147411
0.0219132
0.0328619
0.0495418
0.0746564
0.111425
0.162493
0.226987
0.295075
0.340052
0.264689
0.093625
0.0275508
0.0070403
0.00153847
0.000280017
4.16659e-05
4.69556e-06
3.80254e-07
1.86619e-08
4.47392e-10
3.44405e-12
3.43884e-07
0.000212713
0.0165149
0.131426
0.306507
0.464943
0.58383
0.667882
0.727403
0.770985
0.804337
0.830862
0.852491
0.870332
0.885091
0.897267
0.907262
0.915399
0.921962
0.927187
0.931277
0.934399
0.936692
0.93827
0.93922
0.93961
0.939493
0.938837
0.937615
0.935849
0.933552
0.930731
0.927392
0.923537
0.919168
0.914293
0.908918
0.90305
0.896704
0.889894
0.882637
0.874953
0.866861
0.858385
0.849544
0.84036
0.830849
0.821031
0.810919
0.800527
0.789861
0.778924
0.767721
0.756243
0.744484
0.732429
0.720056
0.707335
0.694237
0.680717
0.666729
0.652213
0.63711
0.621351
0.60486
0.587562
0.569384
0.550251
0.530104
0.508888
0.486578
0.463173
0.438701
0.413231
0.386874
0.359787
0.332172
0.304274
0.276369
0.248763
0.221776
0.195726
0.170914
0.147678
0.126339
0.107047
0.0898772
0.0748289
0.0618355
0.0507764
0.0414912
0.0337944
0.0274889
0.0223781
0.0182751
0.015009
0.0124288
0.0104047
0.00882841
0.00761138
0.00668316
0.005989
0.00548786
0.00515037
0.00495754
0.00489969
0.00497645
0.00519706
0.005582
0.00616567
0.00700063
0.00816412
0.00976747
0.0119696
0.0149956
0.0191629
0.0249156
0.032868
0.0438573
0.0589949
0.0796905
0.107579
0.14422
0.19039
0.244813
0.302151
0.350035
0.365596
0.294226
0.12599
0.0427365
0.0124284
0.00306944
0.000628534
0.000105349
1.3424e-05
1.24332e-06
7.13123e-08
2.06958e-09
2.02685e-11
6.96209e-06
0.0016195
0.0559581
0.256108
0.458602
0.602004
0.694137
0.753919
0.795272
0.826426
0.851654
0.872885
0.890906
0.906096
0.91874
0.929125
0.937549
0.944299
0.949639
0.953807
0.957009
0.959415
0.961166
0.962373
0.963124
0.963481
0.963492
0.963145
0.962391
0.961246
0.959716
0.957806
0.955515
0.952838
0.949771
0.946308
0.942441
0.93817
0.933491
0.928406
0.922915
0.91703
0.910754
0.904103
0.897086
0.889722
0.882026
0.874013
0.8657
0.857104
0.84824
0.839119
0.829755
0.820154
0.810325
0.80027
0.789985
0.779464
0.7687
0.757674
0.746366
0.734747
0.722786
0.710441
0.697658
0.684391
0.670572
0.656136
0.641013
0.625127
0.608405
0.590774
0.572174
0.552548
0.531862
0.510094
0.487256
0.463381
0.438539
0.412841
0.386426
0.359475
0.332202
0.304855
0.277826
0.251421
0.225936
0.201643
0.178776
0.157525
0.138023
0.120348
0.104526
0.0905288
0.0782897
0.0677067
0.0586548
0.0509948
0.0445822
0.0392753
0.0349402
0.0314565
0.0287195
0.0266428
0.0251592
0.0242223
0.0238072
0.0239122
0.0245617
0.0258093
0.0277439
0.0304973
0.0342544
0.0392669
0.0458687
0.0544941
0.0656961
0.0801577
0.0986886
0.122184
0.151516
0.187298
0.229456
0.276568
0.324953
0.367531
0.392494
0.382501
0.312662
0.159133
0.0608823
0.0197205
0.00538382
0.0012126
0.000223709
3.14548e-05
3.24414e-06
2.10691e-07
7.11225e-09
8.4109e-11
7.78303e-05
0.00800264
0.136822
0.403406
0.592152
0.700965
0.764189
0.804727
0.834455
0.85905
0.880759
0.899978
0.916562
0.930455
0.941789
0.950843
0.957944
0.963419
0.967571
0.970661
0.972915
0.97452
0.975628
0.976353
0.976784
0.976981
0.976985
0.9768
0.976331
0.97559
0.974577
0.973292
0.971729
0.96988
0.967737
0.965288
0.962526
0.959439
0.956019
0.952264
0.948166
0.943723
0.938937
0.933814
0.928358
0.922577
0.916483
0.910088
0.903408
0.896455
0.889246
0.881796
0.87412
0.866231
0.858141
0.849864
0.841407
0.832774
0.823968
0.814992
0.805843
0.796506
0.786972
0.777221
0.767227
0.756965
0.746391
0.735468
0.724146
0.712364
0.700064
0.68718
0.673642
0.659379
0.644316
0.628386
0.611522
0.593673
0.574793
0.554853
0.533846
0.511791
0.488728
0.46469
0.439864
0.414426
0.388581
0.362561
0.336618
0.311016
0.286017
0.261871
0.238805
0.217017
0.196671
0.177887
0.160744
0.145281
0.131499
0.119372
0.108848
0.0998572
0.0923251
0.0861744
0.0813349
0.0777501
0.0753822
0.0742199
0.0742817
0.0756236
0.0783449
0.0825939
0.0885764
0.096561
0.106884
0.119948
0.136216
0.15618
0.180313
0.208966
0.242209
0.279576
0.319708
0.359899
0.395562
0.419696
0.422526
0.392131
0.318458
0.189441
0.0805435
0.0287016
0.00856348
0.00209653
0.00042031
6.42774e-05
7.25835e-06
5.2269e-07
1.9985e-08
2.76177e-10
0.000571113
0.0283281
0.260788
0.544609
0.690571
0.763532
0.805387
0.834411
0.858392
0.880519
0.901365
0.920099
0.93598
0.948836
0.958897
0.966563
0.972251
0.976349
0.979195
0.981085
0.982267
0.982945
0.983283
0.983412
0.983417
0.983359
0.983268
0.983157
0.982887
0.982458
0.981863
0.981092
0.98013
0.978965
0.977581
0.97596
0.974091
0.971961
0.969556
0.96687
0.963893
0.960618
0.957046
0.953175
0.949008
0.944546
0.939799
0.934774
0.929486
0.923943
0.918161
0.912157
0.905941
0.899531
0.892943
0.886191
0.879285
0.872242
0.86507
0.857774
0.850362
0.842836
0.835195
0.827433
0.819545
0.811516
0.803325
0.794954
0.786372
0.777547
0.768437
0.759001
0.749182
0.738932
0.728186
0.716879
0.704946
0.692318
0.67893
0.664715
0.649607
0.63356
0.616529
0.598427
0.579281
0.559116
0.537985
0.515974
0.493203
0.469823
0.446011
0.421974
0.397934
0.374123
0.350782
0.32814
0.306421
0.285824
0.266524
0.248671
0.232382
0.21775
0.204839
0.193692
0.184341
0.176808
0.171115
0.167292
0.165384
0.16546
0.167615
0.17198
0.17872
0.188035
0.200153
0.215313
0.233738
0.25559
0.280891
0.309422
0.340571
0.373131
0.40506
0.433199
0.453005
0.458386
0.44191
0.396085
0.317194
0.209486
0.100019
0.0388719
0.0125825
0.00332482
0.000718861
0.000118558
1.45091e-05
1.14384e-06
4.87481e-08
7.72692e-10
0.00308539
0.0769963
0.408778
0.655551
0.752864
0.800003
0.829532
0.852904
0.874703
0.896539
0.917748
0.936437
0.951594
0.963225
0.971815
0.977931
0.982076
0.984675
0.986093
0.986646
0.986612
0.98622
0.985661
0.985071
0.984549
0.984152
0.983906
0.983809
0.983692
0.983538
0.983328
0.983038
0.982644
0.98212
0.981441
0.980585
0.979529
0.978258
0.976756
0.975006
0.973003
0.970735
0.968199
0.965392
0.962314
0.95897
0.955363
0.951499
0.947389
0.943045
0.938476
0.933698
0.928726
0.923574
0.918258
0.912793
0.907196
0.901479
0.895657
0.889742
0.883744
0.877666
0.871523
0.865312
0.859034
0.852689
0.84627
0.839769
0.833167
0.826452
0.8196
0.812586
0.805374
0.797936
0.790222
0.782193
0.7738
0.764986
0.755699
0.745875
0.735453
0.724378
0.712582
0.699989
0.686508
0.672116
0.656782
0.640496
0.62327
0.60514
0.586161
0.56643
0.546064
0.525207
0.504033
0.482738
0.461531
0.440637
0.42028
0.40069
0.382085
0.364675
0.348649
0.334186
0.321443
0.310559
0.301664
0.294872
0.290296
0.288043
0.288224
0.290948
0.296327
0.30447
0.31546
0.329343
0.346091
0.365549
0.387371
0.410931
0.435199
0.458609
0.478891
0.492922
0.496614
0.484996
0.452733
0.395622
0.313718
0.215612
0.117745
0.0495377
0.0172996
0.00491109
0.00113981
0.000201743
2.66035e-05
2.28001e-06
1.07386e-07
1.93466e-09
0.0133945
0.168591
0.547212
0.727052
0.788542
0.82131
0.844693
0.865614
0.887008
0.909594
0.93164
0.95021
0.964324
0.974445
0.981383
0.985846
0.98836
0.989349
0.989194
0.988239
0.986804
0.985164
0.983537
0.98209
0.98093
0.980119
0.97967
0.979559
0.979576
0.979695
0.979879
0.980087
0.980277
0.980414
0.980457
0.98037
0.980126
0.979697
0.979062
0.978206
0.977111
0.975773
0.974181
0.972333
0.970228
0.967868
0.965257
0.962404
0.959316
0.956003
0.952478
0.948753
0.944843
0.940764
0.936528
0.932156
0.927658
0.923054
0.918355
0.913578
0.908736
0.903837
0.89889
0.893906
0.888889
0.883841
0.878766
0.873659
0.868516
0.863333
0.858095
0.852788
0.847397
0.841897
0.83627
0.830483
0.824506
0.818303
0.811834
0.805058
0.797926
0.790397
0.782414
0.773929
0.764818
0.755055
0.744589
0.733372
0.72137
0.708555
0.694925
0.680483
0.665267
0.649325
0.632742
0.615622
0.598098
0.580325
0.562487
0.544778
0.527415
0.510616
0.494612
0.479629
0.465889
0.453604
0.442978
0.434193
0.427424
0.422819
0.420514
0.420613
0.423194
0.428294
0.435894
0.445896
0.458095
0.47213
0.487435
0.503163
0.518101
0.530572
0.538326
0.538473
0.527494
0.501477
0.456806
0.391614
0.308137
0.215082
0.127505
0.0599685
0.0224848
0.00683493
0.00169777
0.000321676
4.55794e-05
4.23328e-06
2.19566e-07
4.48184e-09
0.0461748
0.3083
0.644699
0.76601
0.809084
0.834762
0.855071
0.875042
0.896871
0.920725
0.94376
0.961888
0.974578
0.982969
0.988191
0.990968
0.991777
0.991011
0.98907
0.986358
0.983262
0.980124
0.977217
0.974742
0.972824
0.97152
0.970836
0.970692
0.970857
0.971282
0.97191
0.972679
0.973525
0.97439
0.97522
0.975966
0.976584
0.977039
0.977303
0.977352
0.977171
0.976744
0.976063
0.975127
0.973936
0.972491
0.970795
0.968856
0.966683
0.96429
0.961682
0.958879
0.955894
0.95274
0.949437
0.946
0.942439
0.938778
0.935026
0.931199
0.927315
0.923382
0.919412
0.915415
0.911401
0.907373
0.903339
0.899301
0.895256
0.891206
0.887142
0.883066
0.878963
0.874825
0.870635
0.866378
0.862037
0.857586
0.853005
0.848261
0.84333
0.838176
0.832763
0.827057
0.820963
0.814455
0.807481
0.799997
0.791958
0.783328
0.774069
0.764157
0.75358
0.74234
0.73045
0.717951
0.704897
0.691373
0.677485
0.663356
0.649144
0.635016
0.621162
0.607785
0.595092
0.583299
0.572614
0.563241
0.555369
0.549163
0.544764
0.542275
0.541755
0.543203
0.546542
0.551601
0.558083
0.565529
0.573276
0.58039
0.585615
0.587285
0.583276
0.570989
0.547465
0.509723
0.455526
0.384656
0.300591
0.211654
0.129983
0.0671
0.027867
0.0090475
0.00240062
0.000486386
7.39896e-05
7.44284e-06
4.24957e-07
9.83192e-09
0.104692
0.44545
0.710673
0.787884
0.82206
0.843942
0.862553
0.882277
0.904973
0.93039
0.954416
0.971685
0.98262
0.989206
0.992747
0.993838
0.992819
0.990056
0.986003
0.981173
0.976062
0.971107
0.966657
0.962958
0.960147
0.958286
0.957357
0.957186
0.957543
0.958349
0.959518
0.960958
0.962579
0.964295
0.966031
0.967719
0.9693
0.970727
0.971966
0.97298
0.973754
0.974272
0.97452
0.974497
0.974203
0.973642
0.972818
0.971741
0.97042
0.96887
0.967101
0.96513
0.962973
0.960643
0.958157
0.955532
0.952786
0.949935
0.946991
0.943974
0.940895
0.937768
0.934606
0.931419
0.928217
0.925007
0.921798
0.91859
0.915393
0.912202
0.909024
0.905852
0.902683
0.899513
0.896333
0.89314
0.889915
0.88665
0.88333
0.879934
0.876448
0.872854
0.86912
0.86523
0.86112
0.856759
0.852114
0.847151
0.841834
0.83612
0.829982
0.823381
0.816291
0.808695
0.800573
0.791934
0.782783
0.773149
0.763079
0.75264
0.741914
0.731008
0.720044
0.709169
0.698533
0.688311
0.678667
0.669777
0.661803
0.654894
0.64917
0.644719
0.641576
0.639722
0.639051
0.639358
0.640312
0.641418
0.641984
0.641067
0.637419
0.629444
0.61517
0.592304
0.558409
0.511325
0.449922
0.375169
0.291244
0.205919
0.129193
0.0698408
0.0315144
0.0114831
0.00325041
0.000704187
0.000115054
1.25483e-05
7.8995e-07
2.07649e-08
0.189545
0.552273
0.749809
0.805113
0.831589
0.850384
0.868
0.887833
0.911634
0.938791
0.963771
0.97973
0.988698
0.993552
0.995523
0.994885
0.991799
0.986645
0.98001
0.972575
0.965002
0.957856
0.951572
0.946441
0.94262
0.940157
0.939006
0.938847
0.939478
0.940787
0.942643
0.944917
0.947483
0.950222
0.95303
0.955818
0.958508
0.96104
0.963363
0.965441
0.967248
0.968769
0.969993
0.970913
0.971535
0.971861
0.971899
0.971662
0.971161
0.970412
0.969429
0.968229
0.96683
0.965247
0.963499
0.961603
0.959576
0.957435
0.955198
0.952877
0.950489
0.948048
0.945564
0.943051
0.940522
0.937979
0.935434
0.932893
0.930361
0.927841
0.925336
0.922846
0.92037
0.917908
0.915457
0.913012
0.910568
0.908114
0.905646
0.903153
0.900625
0.898049
0.895407
0.892689
0.889851
0.886875
0.88373
0.880398
0.876849
0.873054
0.868985
0.864614
0.859913
0.854855
0.849422
0.843594
0.837363
0.830727
0.823696
0.816291
0.808549
0.800523
0.792278
0.783895
0.775469
0.767108
0.758927
0.751046
0.743579
0.73663
0.730283
0.724594
0.719572
0.715168
0.711257
0.707619
0.703904
0.699609
0.694033
0.686242
0.675024
0.658861
0.63595
0.604298
0.561965
0.50752
0.440744
0.363474
0.280269
0.198321
0.125994
0.0701054
0.0332397
0.0130317
0.00408519
0.000984073
0.000172904
2.04882e-05
1.42594e-06
4.27353e-08
0.294696
0.628978
0.775057
0.817398
0.839315
0.855317
0.871871
0.891981
0.916998
0.946016
0.971912
0.986139
0.993081
0.99641
0.996925
0.994401
0.988836
0.980723
0.970887
0.960259
0.949713
0.939967
0.93155
0.9248
0.91988
0.916814
0.915511
0.915441
0.916479
0.91846
0.921203
0.924527
0.928258
0.932239
0.936329
0.940411
0.944387
0.948179
0.951728
0.95499
0.957935
0.960544
0.962808
0.964723
0.966295
0.96753
0.968444
0.969045
0.969351
0.969382
0.969155
0.96869
0.968002
0.967114
0.966045
0.964813
0.963436
0.961931
0.96032
0.958611
0.956827
0.954977
0.953076
0.951137
0.949168
0.947183
0.945185
0.943185
0.941188
0.939199
0.93722
0.935257
0.933309
0.931375
0.929458
0.927553
0.925661
0.923776
0.921895
0.920014
0.918122
0.916214
0.914286
0.912322
0.910301
0.908202
0.906012
0.903711
0.901285
0.898707
0.895962
0.893028
0.889876
0.886486
0.88284
0.878913
0.874686
0.87015
0.865292
0.860109
0.854612
0.848813
0.842732
0.836413
0.829892
0.823227
0.816476
0.809707
0.802977
0.796344
0.789844
0.783489
0.777253
0.771059
0.764751
0.758086
0.750698
0.742072
0.731501
0.718058
0.700563
0.67759
0.647499
0.608603
0.559441
0.499241
0.428545
0.349831
0.267849
0.189215
0.120996
0.0685317
0.0335474
0.0138036
0.00462207
0.00121043
0.000235126
3.13068e-05
2.49182e-06
8.64794e-08
0.388763
0.705525
0.792436
0.826186
0.844796
0.859454
0.874643
0.89487
0.921131
0.952093
0.978913
0.991053
0.996066
0.998165
0.997272
0.992534
0.983879
0.972064
0.958284
0.943802
0.929743
0.916992
0.906174
0.897662
0.891609
0.887998
0.886674
0.886827
0.888459
0.891338
0.895218
0.899853
0.90501
0.910483
0.916091
0.921686
0.927143
0.93237
0.937299
0.941874
0.946068
0.949859
0.953239
0.95621
0.958778
0.960956
0.962762
0.964212
0.965328
0.96613
0.966641
0.966884
0.96688
0.96665
0.966217
0.965599
0.964821
0.963898
0.962849
0.96169
0.960437
0.959108
0.957714
0.956269
0.954782
0.953265
0.951726
0.950173
0.948613
0.947052
0.945494
0.943942
0.942398
0.940868
0.939351
0.937843
0.936352
0.934868
0.933397
0.93193
0.93047
0.929007
0.927542
0.926066
0.924568
0.923025
0.921433
0.91978
0.918051
0.916235
0.914313
0.912273
0.910096
0.907764
0.905255
0.902551
0.899632
0.896482
0.893083
0.88942
0.88548
0.881261
0.876756
0.87197
0.866912
0.861595
0.856035
0.850248
0.844252
0.838052
0.831639
0.824979
0.81801
0.81061
0.802593
0.793683
0.783487
0.771459
0.75688
0.738821
0.716135
0.68748
0.6514
0.606517
0.551833
0.48718
0.413742
0.334472
0.254172
0.178905
0.114662
0.065612
0.0327746
0.0139228
0.00487503
0.00135286
0.000282202
4.08912e-05
3.59206e-06
1.39885e-07
0.458113
0.734779
0.804854
0.832333
0.8484
0.86205
0.877141
0.896588
0.924057
0.957012
0.98483
0.994635
0.997962
0.999156
0.99678
0.989292
0.97673
0.960323
0.941772
0.922747
0.904646
0.888527
0.875095
0.864743
0.857596
0.853572
0.852428
0.853006
0.855488
0.859556
0.864879
0.871128
0.878003
0.885242
0.892618
0.899948
0.907086
0.913923
0.920376
0.926391
0.931937
0.936996
0.941563
0.945644
0.949251
0.952404
0.955125
0.957433
0.95936
0.960929
0.962168
0.963102
0.963757
0.964158
0.964328
0.96429
0.964067
0.963679
0.963146
0.962486
0.961713
0.960847
0.959899
0.958884
0.957814
0.956698
0.955547
0.954368
0.95317
0.951956
0.950735
0.949512
0.948288
0.947066
0.945849
0.944639
0.943436
0.942242
0.941055
0.939877
0.938706
0.937541
0.936379
0.935216
0.934047
0.932854
0.931632
0.930377
0.929075
0.927724
0.926305
0.924811
0.923228
0.921544
0.919737
0.917795
0.915697
0.913424
0.910959
0.908279
0.905369
0.902208
0.898775
0.89506
0.891044
0.886713
0.882052
0.877041
0.871658
0.865869
0.859625
0.852853
0.84544
0.837226
0.827982
0.817392
0.805019
0.790283
0.772437
0.750543
0.723487
0.69002
0.648885
0.599019
0.539881
0.471858
0.396666
0.317605
0.23943
0.167659
0.107356
0.0617319
0.0312122
0.0135348
0.00488342
0.00141038
0.00030932
4.76181e-05
4.49314e-06
1.90328e-07
0.512894
0.756489
0.8148
0.836349
0.850325
0.863176
0.878412
0.898004
0.925778
0.960745
0.989722
0.997086
0.999064
0.99966
0.995563
0.984565
0.967095
0.945099
0.92092
0.896685
0.874072
0.85429
0.83811
0.825925
0.817812
0.813597
0.812396
0.813711
0.817433
0.823114
0.830304
0.838574
0.847539
0.85687
0.866295
0.875598
0.884614
0.893221
0.901333
0.908897
0.915882
0.922276
0.928082
0.933313
0.937988
0.942134
0.945779
0.948954
0.951689
0.954017
0.955972
0.957579
0.958871
0.959876
0.960621
0.96113
0.961428
0.961537
0.961479
0.961273
0.960935
0.960484
0.959935
0.959298
0.958591
0.957823
0.957002
0.956139
0.955243
0.954318
0.953372
0.952407
0.951433
0.950449
0.949461
0.948471
0.947481
0.946491
0.945505
0.944524
0.943544
0.94257
0.9416
0.940635
0.939668
0.938686
0.937689
0.936668
0.935622
0.934541
0.933419
0.932248
0.931014
0.929712
0.928323
0.926836
0.92523
0.923493
0.921602
0.919536
0.917275
0.914789
0.912058
0.909051
0.905735
0.902084
0.898055
0.893608
0.888689
0.88323
0.877148
0.87033
0.862622
0.853818
0.843648
0.831737
0.817601
0.800616
0.78
0.754806
0.723961
0.686326
0.640858
0.586826
0.524133
0.453668
0.377591
0.299432
0.223813
0.155715
0.0993779
0.057198
0.0291016
0.0127786
0.0047013
0.00139486
0.000316714
5.08817e-05
5.05254e-06
2.27347e-07
0.556501
0.771846
0.820487
0.838537
0.850682
0.862814
0.878303
0.899044
0.926508
0.963261
0.993643
0.998623
0.999635
0.999886
0.993638
0.978163
0.954636
0.926
0.895362
0.865322
0.837815
0.814169
0.795197
0.781279
0.772425
0.768339
0.767301
0.76974
0.775113
0.782825
0.792288
0.802953
0.814342
0.826055
0.837772
0.849246
0.860298
0.870795
0.880658
0.889839
0.898312
0.906076
0.913143
0.919535
0.925282
0.930419
0.934981
0.939009
0.942539
0.945609
0.948254
0.950513
0.952418
0.954
0.955288
0.956314
0.957098
0.957669
0.958048
0.958256
0.958315
0.958236
0.95804
0.957742
0.957352
0.956884
0.956347
0.95575
0.955105
0.954416
0.953692
0.952936
0.952157
0.951354
0.950539
0.949709
0.948868
0.948022
0.947172
0.946318
0.945463
0.944608
0.943754
0.942901
0.942048
0.941187
0.940313
0.939424
0.938517
0.937585
0.936624
0.935627
0.934589
0.933498
0.932344
0.931113
0.929792
0.928364
0.92681
0.925109
0.923237
0.921167
0.918868
0.916307
0.913445
0.910234
0.906629
0.902561
0.897959
0.89273
0.886756
0.879891
0.871938
0.86265
0.851696
0.838654
0.822984
0.80401
0.780919
0.752763
0.71852
0.677188
0.627959
0.570449
0.504989
0.432918
0.356751
0.280142
0.20751
0.143289
0.0909739
0.052255
0.0266384
0.0117746
0.00438353
0.00132346
0.000307582
5.08848e-05
5.23586e-06
2.45798e-07
0.591162
0.782606
0.823535
0.839049
0.849482
0.860907
0.876675
0.898636
0.927175
0.964518
0.996628
0.999476
0.999889
0.99997
0.990964
0.969844
0.939014
0.902697
0.864856
0.828541
0.795877
0.768262
0.746539
0.731077
0.721807
0.718274
0.718124
0.722175
0.729695
0.739899
0.752041
0.765443
0.779528
0.793833
0.807995
0.821751
0.834907
0.847342
0.858975
0.869773
0.879725
0.888839
0.897142
0.904668
0.911456
0.917553
0.923
0.927846
0.932135
0.935914
0.939219
0.942093
0.944574
0.946697
0.948495
0.949996
0.951235
0.952229
0.95301
0.953594
0.954008
0.954263
0.954382
0.954377
0.954265
0.954053
0.953757
0.953384
0.952947
0.95245
0.951902
0.951308
0.950679
0.950012
0.94932
0.948604
0.947867
0.947113
0.946346
0.945568
0.944784
0.943992
0.943197
0.942401
0.941601
0.940797
0.939978
0.939148
0.938302
0.937438
0.936551
0.935638
0.934689
0.933704
0.932665
0.931566
0.930393
0.929129
0.927759
0.926258
0.924607
0.922777
0.920731
0.918438
0.91585
0.912913
0.909567
0.905737
0.901327
0.896225
0.890287
0.883328
0.875115
0.865348
0.85365
0.839536
0.822412
0.801555
0.77612
0.745181
0.707794
0.663121
0.610615
0.550242
0.482751
0.409864
0.334362
0.259929
0.190708
0.130581
0.0823523
0.0470997
0.0239789
0.0106225
0.00397894
0.00121383
0.000286298
4.82852e-05
5.08842e-06
2.45841e-07
0.618551
0.78996
0.824649
0.837778
0.846714
0.857362
0.87341
0.896738
0.927489
0.964759
0.998692
0.999864
0.999977
0.999995
0.987453
0.959358
0.919928
0.874972
0.829343
0.78645
0.748501
0.716897
0.69252
0.675779
0.666539
0.663601
0.665006
0.671464
0.68193
0.695343
0.710738
0.727295
0.744357
0.761417
0.778101
0.794147
0.809378
0.823688
0.837018
0.849351
0.860693
0.871073
0.880528
0.889107
0.896859
0.903845
0.910111
0.915713
0.920703
0.925131
0.929045
0.932488
0.935497
0.938118
0.94038
0.942318
0.943963
0.945343
0.946481
0.947403
0.948128
0.948678
0.94907
0.949321
0.949441
0.949448
0.94935
0.949161
0.94889
0.948544
0.948131
0.947661
0.947139
0.94657
0.94596
0.945315
0.944639
0.943936
0.943211
0.942469
0.941713
0.940943
0.940164
0.939378
0.938587
0.937792
0.936981
0.936159
0.935323
0.934473
0.933603
0.93271
0.931792
0.930838
0.929842
0.928796
0.927684
0.926494
0.925209
0.923809
0.92227
0.920565
0.918658
0.916512
0.914075
0.911292
0.908092
0.904386
0.900067
0.894996
0.889008
0.88188
0.873339
0.863038
0.850542
0.835307
0.816689
0.793924
0.766162
0.732516
0.692153
0.644431
0.589089
0.526454
0.45765
0.384723
0.310629
0.238983
0.173589
0.117768
0.0736885
0.0418893
0.0212452
0.00940083
0.00352785
0.00108164
0.000257255
4.38955e-05
4.69559e-06
2.3106e-07
0.639912
0.794568
0.823892
0.834494
0.842323
0.852067
0.868346
0.893148
0.926321
0.964979
0.999821
0.999988
1
1
0.983
0.946467
0.897159
0.842764
0.788987
0.739431
0.696209
0.660643
0.633705
0.615999
0.607374
0.603961
0.608036
0.618177
0.632805
0.650434
0.669827
0.690019
0.71031
0.730206
0.749374
0.767599
0.784745
0.800753
0.815591
0.829276
0.841837
0.85332
0.863777
0.873271
0.881862
0.889619
0.8966
0.902865
0.90847
0.91347
0.917917
0.921857
0.925334
0.92839
0.93106
0.93338
0.935383
0.937096
0.938546
0.939759
0.940754
0.941554
0.942176
0.942638
0.942952
0.943133
0.943195
0.943149
0.943004
0.942768
0.942455
0.942066
0.941614
0.941102
0.940536
0.939927
0.939276
0.938589
0.93787
0.937129
0.936364
0.935581
0.934784
0.933979
0.933162
0.93234
0.931504
0.930655
0.929793
0.928919
0.928027
0.927118
0.926187
0.925223
0.924226
0.923182
0.922082
0.92091
0.919655
0.918292
0.9168
0.91515
0.913308
0.91123
0.908866
0.906155
0.903015
0.899348
0.895028
0.889901
0.883762
0.876363
0.867383
0.856423
0.842993
0.826501
0.806253
0.781463
0.751301
0.714959
0.671747
0.621256
0.563531
0.499252
0.429877
0.357704
0.28576
0.2175
0.156334
0.105019
0.0651308
0.0367487
0.0185317
0.00816996
0.00306159
0.00093961
0.000224243
3.84869e-05
4.15081e-06
2.06384e-07
0.656164
0.796986
0.821691
0.82988
0.836243
0.844876
0.861303
0.887696
0.923644
0.965182
0.999999
0.999999
0.999998
0.999999
0.977504
0.930963
0.870576
0.806195
0.74423
0.688206
0.639876
0.600332
0.570773
0.552409
0.545133
0.543923
0.551738
0.566527
0.586091
0.608469
0.632139
0.656031
0.679446
0.701957
0.723318
0.743389
0.762117
0.779489
0.795525
0.810269
0.82378
0.836121
0.847362
0.857574
0.86683
0.875201
0.882752
0.889546
0.89565
0.901119
0.906
0.91035
0.914212
0.917628
0.920634
0.923271
0.925569
0.927558
0.929266
0.930715
0.931929
0.932927
0.933732
0.934359
0.93482
0.935136
0.935312
0.935367
0.935307
0.935142
0.934884
0.934539
0.93412
0.933628
0.933074
0.932463
0.9318
0.931099
0.930355
0.929582
0.928779
0.927957
0.927115
0.92626
0.925393
0.92452
0.923632
0.922733
0.921823
0.920903
0.919969
0.919018
0.918049
0.917056
0.916029
0.914964
0.913847
0.912668
0.911408
0.910048
0.908568
0.906932
0.90511
0.903057
0.900713
0.898013
0.894868
0.891161
0.886757
0.881466
0.875059
0.867247
0.85766
0.845852
0.831279
0.813304
0.791205
0.764205
0.731526
0.692471
0.646545
0.593603
0.534003
0.468758
0.399608
0.329009
0.259964
0.19568
0.139119
0.0924827
0.056804
0.031777
0.0159092
0.00697433
0.00260332
0.000797279
0.000190215
3.26928e-05
3.53644e-06
1.76597e-07
0.667988
0.797604
0.818201
0.823802
0.828366
0.835646
0.85207
0.880159
0.919277
0.964519
1
1
0.999998
0.999997
0.970885
0.912666
0.840163
0.765619
0.695868
0.63395
0.580839
0.537136
0.504438
0.485591
0.476958
0.480639
0.495835
0.51842
0.544899
0.572878
0.600892
0.628113
0.654079
0.678567
0.701484
0.722808
0.742564
0.760804
0.77759
0.792995
0.8071
0.819981
0.831721
0.842398
0.852093
0.860876
0.868815
0.875985
0.882439
0.88824
0.89344
0.898091
0.902236
0.905921
0.909183
0.912054
0.914572
0.916766
0.918664
0.920286
0.921658
0.922801
0.923732
0.924471
0.925032
0.92543
0.925674
0.925782
0.925764
0.925628
0.925388
0.925048
0.92462
0.924112
0.923533
0.922888
0.922185
0.921434
0.920639
0.919808
0.918944
0.918055
0.917147
0.916222
0.915287
0.914347
0.913393
0.912431
0.91146
0.91048
0.909493
0.908493
0.907478
0.906442
0.905381
0.904283
0.903142
0.901941
0.900664
0.899295
0.897806
0.896169
0.89434
0.892278
0.889916
0.887179
0.883963
0.880139
0.875543
0.86996
0.863126
0.854701
0.844275
0.831351
0.815341
0.79558
0.771346
0.741905
0.706574
0.664818
0.616373
0.561384
0.500519
0.435081
0.367023
0.298862
0.23347
0.17373
0.12212
0.0802978
0.048814
0.0270506
0.0134299
0.00584546
0.00216924
0.000661362
0.000157287
2.69799e-05
2.91554e-06
1.45547e-07
0.67583
0.796689
0.813437
0.815833
0.817758
0.824228
0.840423
0.870278
0.912994
0.962825
0.999997
0.999997
0.999998
0.999996
0.963068
0.891412
0.806015
0.721679
0.645169
0.57849
0.521214
0.472907
0.435412
0.415311
0.407279
0.42146
0.449247
0.482366
0.516203
0.548935
0.579971
0.609128
0.636361
0.661693
0.685183
0.706909
0.72696
0.74543
0.762409
0.777985
0.792254
0.805303
0.817209
0.828056
0.837921
0.846884
0.855005
0.862352
0.868987
0.874966
0.880343
0.885164
0.889476
0.893319
0.896732
0.899748
0.9024
0.904716
0.906725
0.908449
0.90991
0.911129
0.912127
0.912918
0.913516
0.913943
0.914205
0.914316
0.914291
0.914137
0.913868
0.913492
0.913018
0.912457
0.911817
0.911108
0.910333
0.909507
0.908635
0.907721
0.906778
0.905805
0.904815
0.903811
0.902798
0.90178
0.900753
0.899723
0.89869
0.897651
0.896609
0.895561
0.894503
0.893431
0.892338
0.891215
0.89005
0.888832
0.887542
0.88616
0.88466
0.883006
0.881158
0.87906
0.876638
0.873805
0.870438
0.866387
0.861456
0.855397
0.847902
0.838588
0.826998
0.812595
0.794765
0.772845