/*--------------------------------*- C++ -*----------------------------------*\
  =========                 |
  \\      /  F ield         | OpenFOAM: The Open Source CFD Toolbox
   \\    /   O peration     | Website:  https://openfoam.org
    \\  /    A nd           | Version:  13
     \\/     M anipulation  |
\*---------------------------------------------------------------------------*/
FoamFile
{
    format      ascii;
    class       volScalarField;
    location    "144.831886";
    object      T;
}
// * * * * * * * * * * * * * * * * * * * * * * * * * * * * * * * * * * * * * //

dimensions      [0 0 0 1 0 0 0];

internalField   nonuniform List<scalar> 
5712
(
1049.14
1048.92
1048.57
1048.24
1047.73
1047.4
1046.58
1046.3
1046.82
1046.51
1047.73
1047.41
1048.4
1048.09
1048.9
1048.67
1047.45
1047.02
1046.89
1046.29
1046.05
1045.49
1045.53
1044.82
1049.86
1051.06
1049.63
1050.76
1049.32
1050.47
1048.97
1050.06
1048.1
1048.75
1047.5
1048.32
1049.75
1049.06
1046.19
1045.15
1045.6
1044.83
1044.91
1044.03
1044.22
1043.55
1047.4
1046.32
1046.77
1045.96
1048.37
1047.33
1052.43
1053.26
1051.87
1052.73
1051.84
1052.88
1051.17
1052.13
1050.98
1052.39
1049.93
1051.25
1049.13
1050.43
1048.2
1049.52
1047.11
1046.92
1046.21
1046.11
1045.25
1045
1044.53
1044.28
1047.84
1048.08
1048.9
1048.93
1045.45
1045.45
1044.76
1044.9
1043.88
1043.68
1043.27
1043.17
1046.98
1047.37
1046.22
1046.8
1049.45
1051.03
1050.04
1051.81
1050.58
1052.2
1050.92
1052.76
1048.51
1050.05
1049.31
1051.05
1047.69
1049.2
1048.73
1050.45
1054.39
1056.19
1054.69
1056.48
1053.84
1055.52
1054.39
1056.09
1052.92
1054.21
1053.88
1055.28
1048.38
1046.18
1050.39
1051.9
1053.55
1046.5
1048.84
1051.23
1052.84
1054.61
1045.91
1047.98
1050
1051.91
1053.79
1057.85
1058.68
1058.75
1059.48
1057.01
1057.96
1058.18
1058.97
1055.55
1056.61
1057.21
1058.15
1047.03
1047.91
1049.58
1050.77
1051.93
1053.15
1053.8
1055.01
1056.29
1057.49
1046.3
1047.01
1048.63
1049.85
1050.81
1052.2
1052.99
1054.49
1055.74
1057.32
1047.52
1048.9
1046.53
1047.76
1045.23
1045.65
1044.35
1044.59
1048.86
1050.48
1049.82
1051.54
1045.7
1046.93
1045.16
1046.33
1043.64
1043.87
1043.13
1043.31
1047.98
1049.63
1047.44
1049.05
1051.51
1053.46
1054.79
1057.15
1052.28
1054.33
1055.31
1057.62
1050.8
1052.69
1054.3
1056.61
1050.12
1052.04
1053.6
1055.79
1058.96
1059.35
1060.05
1059.11
1059.29
1059.94
1058.42
1058.89
1059.64
1058.7
1058.92
1059.61
1057.31
1057.93
1058.76
1058.08
1058.4
1059.18
1048.99
1050.22
1051.54
1052.04
1053.12
1054.29
1054.33
1055.27
1056.3
1055.97
1056.76
1057.75
1057.59
1058.02
1058.94
1048.01
1049.4
1050.89
1051.5
1052.95
1054.42
1053.87
1055.15
1056.48
1055.79
1056.77
1057.94
1057.58
1058.13
1059.19
1043.56
1043.11
1043.17
1042.59
1044.68
1044.13
1044.23
1043.54
1043.38
1042.5
1043.27
1042.45
1043.11
1042.32
1042.92
1042.18
1042.28
1042.66
1042.03
1042.47
1042.14
1041.83
1042.15
1041.63
1043.01
1042.43
1042.03
1041.53
1041.67
1041.21
1041.65
1041.17
1041.61
1040.83
1041.76
1041.03
1041.48
1040.68
1041.52
1040.79
1041.36
1040.49
1041.14
1040.36
1040.98
1040.31
1040.58
1040.03
1042.53
1042.14
1042.02
1041.59
1043.7
1043.36
1043.1
1042.74
1041.26
1040.75
1041.71
1041.24
1041.52
1041.11
1041.03
1040.69
1042.54
1042.21
1042
1041.74
1040.83
1040.33
1040.38
1039.97
1040.64
1039.97
1040.22
1039.84
1041
1040.28
1040.64
1040.19
1040.29
1039.71
1039.85
1039.54
1039.9
1039.42
1039.53
1039.27
1041.66
1042.06
1040.91
1041.32
1041.63
1042.06
1040.85
1041.28
1041.6
1041.98
1040.75
1041.14
1042.91
1044.31
1042.04
1041.36
1040.63
1044.61
1043.22
1042.42
1041.74
1040.97
1044.03
1042.67
1041.7
1041.05
1040.54
1042.74
1043.68
1042.01
1042.92
1042.68
1043.57
1041.9
1042.77
1042.52
1043.37
1041.68
1042.49
1044.99
1045.73
1043.53
1044.27
1042.7
1043.46
1042.06
1042.83
1041.34
1042.1
1044.27
1044.71
1042.88
1043.31
1041.93
1042.45
1041.33
1041.96
1040.89
1041.66
1042.06
1042.22
1041.49
1041.5
1043.33
1043.45
1042.65
1042.58
1040.76
1040.96
1041.25
1041.58
1041.06
1040.96
1040.65
1040.51
1042.13
1041.94
1041.66
1041.43
1040.37
1040.47
1040.01
1040.07
1040.32
1040.73
1040.14
1040.77
1040.76
1041.28
1040.49
1041.2
1039.96
1040.27
1039.85
1040.4
1039.66
1039.94
1039.59
1040.07
1044.96
1046.23
1047.44
1044.49
1045.93
1047.15
1044.77
1046.07
1047.3
1044.28
1045.73
1046.99
1044.5
1045.76
1047.02
1043.92
1045.44
1046.79
1046.71
1047.94
1049.28
1045.28
1046.55
1047.91
1044.48
1045.81
1047.2
1043.92
1045.24
1046.59
1043.54
1045.14
1046.61
1045.5
1046.83
1048.35
1044.14
1045.5
1047.02
1043.39
1044.83
1046.4
1043.06
1044.58
1046.16
1043.17
1044.84
1046.46
1040.53
1041.11
1042.57
1045.22
1040.77
1041.39
1042.9
1045.58
1040.43
1041.03
1042.49
1045.17
1040.58
1041.24
1042.76
1045.45
1040.29
1040.92
1042.33
1044.93
1040.23
1040.94
1042.44
1045.1
1040.28
1041.06
1042.67
1045.39
1040.13
1041.01
1042.67
1045.41
1039.97
1040.72
1042.18
1044.82
1040.01
1040.82
1042.17
1044.54
1040.19
1040.87
1042.2
1044.65
1040.27
1041
1042.25
1044.49
1039.79
1040.61
1042.19
1044.92
1039.8
1040.67
1042.09
1044.52
1039.6
1040.5
1042.13
1044.85
1039.61
1040.54
1042
1044.43
1040.57
1041.09
1042.42
1044.92
1040.91
1041.35
1042.49
1044.68
1040.54
1041.08
1042.39
1044.88
1040.89
1041.36
1042.49
1044.66
1040.5
1041.07
1042.34
1044.75
1040.82
1041.33
1042.47
1044.61
1040.49
1041.1
1042.31
1044.58
1040.75
1041.32
1042.44
1044.52
1040.52
1041.18
1042.34
1044.42
1041.43
1041.81
1042.84
1044.41
1042.02
1042.36
1043.41
1044.89
1041.37
1041.77
1042.81
1044.38
1041.95
1042.33
1043.39
1044.88
1041.25
1041.71
1042.77
1044.35
1041.83
1042.27
1043.36
1044.85
1041.07
1041.62
1042.7
1044.29
1041.67
1042.19
1043.31
1044.82
1040.85
1041.5
1042.62
1044.23
1041.48
1042.09
1043.26
1044.78
1040.43
1041.26
1042.51
1044.18
1041
1041.82
1043.09
1044.67
1040.64
1041.38
1042.57
1044.21
1041.24
1041.96
1043.18
1044.72
1040.25
1041.15
1042.46
1044.15
1040.78
1041.69
1043.01
1044.61
1040.08
1041.04
1042.38
1044.09
1040.58
1041.56
1042.93
1044.54
1049.26
1052.5
1055.27
1057.52
1059.27
1049.46
1052.67
1055.43
1057.68
1059.43
1049.23
1052.49
1055.26
1057.52
1059.26
1049.43
1052.65
1055.41
1057.66
1059.41
1049.19
1052.47
1055.25
1057.5
1059.25
1049.28
1052.52
1055.29
1057.55
1059.3
1049.36
1052.61
1055.38
1057.64
1059.39
1049.32
1052.57
1055.35
1057.62
1059.37
1049.16
1052.45
1055.24
1057.5
1059.25
1049.33
1052.7
1055.49
1057.75
1059.5
1049.2
1052.51
1055.3
1057.56
1059.31
1049.38
1052.76
1055.54
1057.8
1059.55
1049.16
1052.46
1055.24
1057.51
1059.26
1049.35
1052.73
1055.52
1057.79
1059.54
1049.11
1052.42
1055.22
1057.49
1059.24
1049.34
1052.73
1055.53
1057.8
1059.55
1049.28
1052.58
1055.35
1057.61
1059.35
1049.53
1052.88
1055.65
1057.9
1059.64
1049.28
1052.59
1055.36
1057.62
1059.36
1049.52
1052.88
1055.65
1057.9
1059.65
1049.28
1052.61
1055.39
1057.65
1059.4
1049.53
1052.89
1055.67
1057.92
1059.67
1049.36
1052.72
1055.5
1057.76
1059.51
1049.57
1052.94
1055.72
1057.98
1059.72
1049.5
1052.88
1055.66
1057.92
1059.66
1062.56
1063.08
1062.32
1062.85
1061.9
1062.49
1061.36
1062.05
1060.82
1061.62
1059.97
1060.89
1060.41
1061.31
1059.55
1060.44
1059.1
1059.91
1068.2
1074.37
1079.56
1083.61
1086.42
1068.11
1074.33
1079.57
1083.66
1086.51
1068.1
1074.31
1079.52
1083.59
1086.4
1068.02
1074.29
1079.54
1083.65
1086.49
1067.89
1074.2
1079.45
1083.53
1086.35
1067.82
1074.17
1079.47
1083.59
1086.45
1067.6
1074.03
1079.34
1083.45
1086.28
1067.56
1074.02
1079.37
1083.52
1086.39
1067.27
1073.82
1079.19
1083.34
1086.19
1067.28
1073.84
1079.24
1083.43
1086.3
1066.56
1073.3
1078.81
1083.04
1085.92
1066.64
1073.38
1078.9
1083.15
1086.05
1066.92
1073.57
1079.01
1083.2
1086.07
1066.98
1073.63
1079.09
1083.31
1086.2
1066.21
1073.03
1078.59
1082.87
1085.77
1066.26
1073.08
1078.67
1082.96
1085.88
1065.84
1072.74
1078.37
1082.69
1085.6
1065.84
1072.77
1078.42
1082.76
1085.71
1042.23
1043.02
1043.74
1042.83
1044.1
1043.97
1043.92
1043.74
1044.17
1043.93
1045.24
1044.96
1045.83
1045.51
1045.03
1044.76
1044.72
1044.53
1044.67
1044.52
1042.88
1042.7
1045.24
1046.25
1046.56
1046.66
1045.74
1045.15
1046.29
1044.99
1047.29
1048.79
1045.29
1045.69
1046.86
1045.62
1046.13
1046.24
1044.21
1044.17
1044.83
1044.62
1044.31
1044.09
1044.38
1044.75
1046.04
1045.81
1045.31
1045.07
1043.27
1043
1043.51
1043.3
1043.68
1043.74
1044.46
1045.34
1044.44
1041.41
1040.67
1040.37
1040.43
1040.87
1041.6
1040.98
1040.72
1040.85
1041.41
1044.48
1044.14
1044.11
1044.42
1045.08
1045.52
1045.2
1045.2
1045.53
1046.2
1045.82
1045.49
1045.48
1045.8
1046.46
1045.93
1045.62
1045.62
1045.95
1046.62
1044.99
1044.65
1044.63
1044.95
1045.61
1043.54
1042.57
1042.08
1042
1042.32
1044.57
1043.53
1043.01
1042.92
1043.29
1043.84
1043.11
1042.73
1042.78
1043.29
1045.7
1044.7
1044.22
1044.18
1044.63
1047.24
1046.22
1045.72
1045.68
1046.13
1044.37
1043.85
1043.65
1043.83
1044.42
1044.62
1043.96
1043.65
1043.74
1044.28
1045.82
1045.19
1044.89
1044.99
1045.55
1044.76
1044.3
1044.15
1044.37
1044.98
1045.22
1044.7
1044.5
1044.68
1045.28
1045.4
1044.95
1044.81
1045.04
1045.66
1042.74
1041.92
1041.52
1041.5
1041.88
1043.15
1042.54
1042.26
1042.38
1042.93
1043.96
1043.48
1043.32
1043.53
1044.14
1043.79
1043.35
1043.23
1043.47
1044.09
1043.41
1042.91
1042.73
1042.93
1043.53
1043.24
1042.78
1042.65
1042.88
1043.5
1043.59
1043.19
1043.12
1043.4
1044.04
1043.96
1043.57
1043.5
1043.78
1044.42
1045.26
1044.88
1044.81
1045.09
1045.73
1045.05
1044.69
1044.65
1044.94
1045.6
1044.49
1044.06
1043.96
1044.21
1044.84
1044.28
1043.88
1043.8
1044.08
1044.72
1041.84
1041.08
1040.75
1040.79
1041.2
1041.96
1041.38
1041.14
1041.28
1041.85
1042.32
1041.64
1041.32
1041.38
1041.86
1042.38
1041.86
1041.67
1041.86
1042.46
1042.8
1042.33
1042.18
1042.39
1043.01
1042.74
1042.15
1041.9
1042.02
1042.59
1043.66
1043.26
1043.18
1043.45
1044.09
1044.57
1044.21
1044.17
1044.47
1045.12
1043.61
1043.19
1043.08
1043.33
1043.96
1042.66
1043.12
1042.7
1043.2
1041.6
1042.13
1041.58
1042.05
1042.73
1042.79
1043.22
1043.12
1041.61
1041.64
1042.1
1041.95
1043.79
1044.9
1044.2
1045.27
1043.79
1044.8
1044.28
1045.26
1044.29
1043.86
1044.05
1043.77
1044.64
1045.07
1043.82
1044.32
1043.58
1044.14
1042.73
1043.26
1042.41
1042.93
1044.87
1045.41
1044.53
1045.16
1045.68
1046.33
1045.92
1046.82
1046.25
1047.1
1045.85
1046.91
1046.26
1047.21
1045.66
1047.1
1045.94
1047.22
1046.5
1047.81
1047.25
1048.59
1043.14
1043.43
1043.37
1043.7
1041.74
1041.84
1041.98
1042.07
1044.7
1045.53
1044.5
1045.25
1043.73
1044.02
1044.2
1044.42
1042.34
1042.37
1042.77
1042.73
1045.08
1045.86
1045.59
1046.3
1046.1
1047.69
1047.43
1049.23
1045.96
1047.68
1047.19
1049.09
1046.46
1047.99
1047.76
1049.51
1047.01
1048.51
1048.22
1049.93
1045.99
1046.51
1046.99
1047.81
1045.91
1046.33
1047.13
1047.92
1045.75
1045.98
1047.39
1048.04
1043.09
1041.65
1044.51
1046.04
1048.01
1041.6
1042.97
1044.39
1046.01
1048.35
1041.72
1043.28
1045.08
1047.05
1049.1
1047.36
1047.75
1049.96
1050.74
1046.96
1047.36
1049.81
1050.58
1046.38
1046.7
1049.62
1050.4
1041.64
1041.86
1043.1
1043.36
1044.64
1044.9
1046.5
1046.84
1049.87
1050.7
1041.74
1041.97
1043.45
1043.98
1045.41
1046.07
1047.68
1048.48
1050.77
1051.77
1043.86
1044.76
1044.09
1045.02
1041.91
1042.01
1042.11
1042.17
1046.31
1047.63
1046.01
1047.27
1044.3
1045.36
1044.7
1045.83
1042.35
1042.47
1042.7
1042.86
1046.52
1048
1046.96
1048.53
1048.96
1050.66
1052.34
1054.49
1048.52
1050.17
1051.73
1053.74
1049.3
1051.06
1052.86
1055.07
1049.62
1051.5
1053.14
1055.31
1047.91
1048.26
1050.26
1050.32
1047.53
1047.91
1050.16
1050.19
1046.96
1047.52
1050.06
1050.13
1042.3
1043.09
1043.85
1044.59
1045.33
1045.97
1047.19
1047.8
1050.25
1050.28
1042.42
1043.27
1044.7
1045.49
1046.72
1047.31
1048.75
1049.04
1050.87
1050.75
1039.86
1039.83
1040.34
1040.13
1040.64
1040.61
1041.13
1040.92
1039.33
1038.96
1039.78
1039.39
1039.34
1038.99
1039.83
1039.45
1039.75
1039.33
1039.68
1039.37
1039.07
1039.46
1040.57
1041.08
1041.35
1041.86
1040.32
1040.9
1040.13
1040.65
1040.02
1040.55
1038.74
1038.62
1039.16
1039.02
1038.74
1038.59
1039.19
1038.99
1038.76
1038.54
1039.09
1038.82
1039.59
1039.27
1040.07
1039.65
1039.7
1039.67
1039.91
1039.82
1040.58
1040.57
1040.81
1040.76
1039.32
1039.2
1039.13
1039.08
1040.23
1040.05
1040.61
1040.34
1041.14
1041.02
1041.55
1041.34
1039.62
1039.4
1039.98
1039.65
1038.91
1038.66
1038.86
1038.74
1038.74
1038.54
1038.76
1038.68
1039.2
1038.87
1039.03
1038.87
1039.53
1039.14
1039.25
1039.05
1038.56
1038.63
1038.47
1038.59
1038.59
1038.67
1038.47
1038.6
1038.66
1038.73
1038.5
1038.62
1039.62
1040.49
1039.06
1038.7
1038.56
1040.5
1039.67
1039.12
1038.76
1038.64
1040.47
1039.61
1039.05
1038.75
1038.68
1038.93
1039.46
1038.95
1039.51
1038.93
1039.42
1038.92
1039.46
1038.93
1039.36
1038.88
1039.37
1040.51
1040.72
1039.68
1039.94
1039.18
1039.5
1038.88
1039.26
1038.84
1039.3
1040.43
1040.53
1039.59
1039.72
1039.07
1039.3
1038.83
1039.17
1038.86
1039.31
1039.56
1039.55
1039.74
1039.64
1040.44
1040.36
1040.66
1040.46
1039.21
1039.28
1039.06
1039.21
1040.02
1039.85
1040.31
1040.15
1040.96
1040.7
1041.28
1041.03
1039.44
1039.47
1039.7
1039.75
1038.96
1039.23
1039.03
1039.47
1038.86
1039.18
1038.92
1039.4
1039.14
1039.38
1039.18
1039.63
1039.38
1039.63
1039.36
1039.82
1040.1
1040.7
1040.33
1041.04
1040.01
1040.66
1040.26
1041.01
1039.93
1040.65
1040.16
1041.03
1041.17
1041.96
1040.43
1041.24
1040.02
1040.83
1039.82
1040.66
1040.09
1041.12
1040.9
1041.81
1040.15
1041.1
1039.83
1040.83
1039.83
1040.86
1040.19
1041.35
1039.02
1040.1
1041.88
1044.76
1039.38
1040.46
1042.26
1045.15
1038.99
1040.07
1041.84
1044.75
1039.34
1040.41
1042.19
1045.07
1038.97
1040.04
1041.73
1044.54
1039.19
1040.24
1041.95
1044.77
1039.58
1040.59
1042.34
1045.17
1039.88
1040.83
1042.55
1045.33
1039.07
1040.11
1041.76
1044.53
1039.25
1040.3
1041.79
1044.27
1039.01
1040.08
1041.65
1044.28
1039.21
1040.29
1041.76
1044.14
1039.21
1040.22
1041.91
1044.73
1039.33
1040.35
1041.86
1044.34
1039.4
1040.36
1042.03
1044.78
1039.45
1040.43
1041.92
1044.36
1038.9
1039.98
1041.66
1044.41
1039.07
1040.14
1041.67
1044.11
1038.92
1040
1041.66
1044.39
1039.1
1040.18
1041.69
1044.11
1038.98
1040.05
1041.65
1044.3
1039.15
1040.23
1041.72
1044.11
1039.09
1040.16
1041.67
1044.16
1039.21
1040.29
1041.75
1044.06
1039.24
1040.32
1041.75
1044.02
1039.46
1040.53
1041.98
1043.76
1039.98
1041.05
1042.53
1044.2
1039.46
1040.54
1041.98
1043.75
1039.98
1041.06
1042.53
1044.2
1039.47
1040.55
1041.99
1043.77
1039.99
1041.07
1042.55
1044.21
1039.48
1040.56
1041.99
1043.76
1040
1041.09
1042.56
1044.23
1039.5
1040.6
1042
1043.76
1040.02
1041.13
1042.6
1044.25
1039.66
1040.74
1042.13
1043.87
1040.13
1041.23
1042.68
1044.33
1039.56
1040.66
1042.06
1043.81
1040.05
1041.17
1042.63
1044.28
1039.78
1040.83
1042.22
1043.96
1040.25
1041.33
1042.76
1044.4
1039.92
1040.93
1042.3
1044.02
1040.41
1041.45
1042.85
1044.47
1048.98
1052.34
1055.16
1057.45
1059.21
1049.2
1052.51
1055.33
1057.61
1059.37
1048.98
1052.34
1055.16
1057.45
1059.21
1049.2
1052.51
1055.32
1057.61
1059.37
1048.97
1052.34
1055.16
1057.45
1059.21
1049.09
1052.41
1055.22
1057.5
1059.26
1049.23
1052.53
1055.33
1057.61
1059.36
1049.27
1052.54
1055.34
1057.61
1059.36
1048.99
1052.35
1055.17
1057.46
1059.22
1049.18
1052.61
1055.43
1057.71
1059.47
1049
1052.39
1055.22
1057.51
1059.27
1049.2
1052.65
1055.48
1057.76
1059.51
1049.04
1052.38
1055.2
1057.48
1059.24
1049.25
1052.67
1055.48
1057.76
1059.52
1049.07
1052.4
1055.2
1057.48
1059.23
1049.31
1052.71
1055.52
1057.79
1059.54
1049
1052.41
1055.24
1057.53
1059.3
1049.23
1052.7
1055.54
1057.83
1059.59
1049.01
1052.42
1055.26
1057.55
1059.31
1049.24
1052.71
1055.55
1057.83
1059.59
1049.04
1052.47
1055.3
1057.59
1059.35
1049.27
1052.74
1055.57
1057.86
1059.62
1049.14
1052.59
1055.42
1057.71
1059.47
1049.34
1052.81
1055.64
1057.92
1059.68
1049.3
1052.76
1055.59
1057.87
1059.63
1055.47
1056.07
1055.55
1056.16
1055.74
1056.37
1056.04
1056.66
1056.53
1057.06
1057.77
1058.46
1057.21
1057.82
1058.25
1059.01
1058.68
1059.45
1063.08
1070.74
1076.87
1081.5
1084.58
1062.91
1070.65
1076.87
1081.52
1084.66
1063.15
1070.79
1076.91
1081.52
1084.6
1063.01
1070.73
1076.91
1081.57
1084.69
1063.3
1070.9
1076.98
1081.58
1084.65
1063.16
1070.83
1076.98
1081.63
1084.74
1063.54
1071.06
1077.1
1081.67
1084.73
1063.38
1070.98
1077.08
1081.71
1084.81
1063.88
1071.29
1077.26
1081.8
1084.84
1063.66
1071.16
1077.22
1081.81
1084.9
1064.7
1071.85
1077.68
1082.13
1085.12
1064.55
1071.76
1077.65
1082.15
1085.18
1064.28
1071.55
1077.46
1081.95
1084.97
1064.07
1071.43
1077.41
1081.96
1085.02
1065.09
1072.15
1077.91
1082.31
1085.27
1065.01
1072.11
1077.91
1082.35
1085.34
1065.47
1072.45
1078.14
1082.5
1085.44
1065.43
1072.45
1078.17
1082.55
1085.53
1041.56
1042.31
1041.75
1040.97
1039.89
1040.34
1039.88
1040.4
1040.65
1041.19
1040.65
1041.12
1049.97
1049.82
1049.46
1048.88
1048.11
1047.17
1050.03
1049.89
1049.54
1049
1048.29
1047.46
1050.34
1050.89
1050.17
1050.7
1049.76
1050.24
1049.11
1049.49
1048.24
1048.52
1047.22
1047.53
1046.17
1045.22
1044.4
1043.72
1043.22
1042.86
1046.57
1045.71
1044.94
1044.28
1043.78
1043.44
1049.3
1049.03
1049.08
1049.44
1050.12
1049.15
1048.88
1048.92
1049.28
1049.96
1048.78
1048.51
1048.55
1048.91
1049.59
1048.2
1047.92
1047.96
1048.31
1048.99
1047.41
1047.13
1047.16
1047.51
1048.18
1046.46
1046.16
1046.18
1046.53
1047.2
1049.36
1049.09
1049.14
1049.5
1050.17
1049.21
1048.94
1048.99
1049.35
1050.02
1048.86
1048.59
1048.63
1048.99
1049.67
1048.32
1048.04
1048.07
1048.43
1049.1
1047.6
1047.31
1047.34
1047.69
1048.36
1046.75
1046.45
1046.47
1046.81
1047.48
1049.67
1049.4
1049.45
1049.81
1050.49
1050.22
1049.96
1050
1050.36
1051.04
1049.5
1049.23
1049.28
1049.64
1050.31
1050.03
1049.76
1049.81
1050.17
1050.84
1049.08
1048.81
1048.86
1049.22
1049.89
1049.56
1049.29
1049.33
1049.69
1050.37
1048.42
1048.15
1048.19
1048.54
1049.22
1048.8
1048.52
1048.56
1048.92
1049.59
1047.54
1047.26
1047.29
1047.64
1048.31
1047.83
1047.54
1047.57
1047.92
1048.59
1046.51
1046.21
1046.23
1046.57
1047.25
1046.82
1046.52
1046.53
1046.87
1047.55
1045.44
1045.12
1045.12
1045.45
1046.12
1044.46
1044.11
1044.09
1044.4
1045.06
1043.61
1043.22
1043.16
1043.44
1044.09
1042.88
1042.45
1042.34
1042.58
1043.21
1042.32
1041.84
1041.68
1041.89
1042.51
1041.92
1041.41
1041.23
1041.43
1042.03
1045.85
1045.53
1045.53
1045.86
1046.53
1044.96
1044.62
1044.59
1044.91
1045.57
1044.16
1043.79
1043.73
1044.02
1044.68
1043.48
1043.07
1042.98
1043.25
1043.89
1042.94
1042.51
1042.4
1042.64
1043.27
1042.58
1042.13
1042
1042.24
1042.87
1049.91
1049.62
1049.12
1048.41
1047.49
1046.41
1049.97
1049.69
1049.21
1048.54
1047.7
1046.74
1050.27
1050.82
1049.96
1050.48
1049.41
1049.87
1048.62
1048.96
1047.59
1047.85
1046.41
1046.66
1045.27
1044.23
1043.39
1042.83
1042.59
1042.63
1045.75
1044.84
1044.09
1043.56
1043.29
1043.26
1049.23
1048.96
1049.01
1049.37
1050.05
1048.94
1048.68
1048.72
1049.09
1049.77
1048.44
1048.17
1048.22
1048.58
1049.26
1047.72
1047.45
1047.49
1047.85
1048.53
1046.8
1046.52
1046.55
1046.91
1047.6
1045.71
1045.42
1045.44
1045.8
1046.48
1049.29
1049.02
1049.07
1049.43
1050.11
1049.01
1048.74
1048.79
1049.15
1049.83
1048.53
1048.26
1048.3
1048.66
1049.34
1047.85
1047.57
1047.61
1047.97
1048.65
1047
1046.72
1046.75
1047.11
1047.79
1046.04
1045.74
1045.77
1046.12
1046.8
1049.6
1049.33
1049.38
1049.74
1050.42
1050.15
1049.88
1049.93
1050.29
1050.97
1049.29
1049.02
1049.07
1049.43
1050.11
1049.81
1049.54
1049.59
1049.95
1050.63
1048.73
1048.47
1048.51
1048.87
1049.55
1049.19
1048.92
1048.97
1049.33
1050.01
1047.93
1047.66
1047.7
1048.06
1048.74
1048.28
1048.01
1048.05
1048.41
1049.09
1046.9
1046.62
1046.66
1047.02
1047.7
1047.16
1046.87
1046.91
1047.27
1047.95
1045.71
1045.41
1045.44
1045.8
1046.48
1045.95
1045.66
1045.69
1046.04
1046.73
1044.55
1044.24
1044.26
1044.6
1045.28
1043.48
1043.16
1043.15
1043.48
1044.15
1042.62
1042.26
1042.22
1042.52
1043.19
1042.01
1041.6
1041.52
1041.79
1042.43
1041.71
1041.25
1041.12
1041.35
1041.98
1041.7
1041.2
1041.03
1041.23
1041.84
1045.03
1044.73
1044.74
1045.08
1045.76
1044.1
1043.77
1043.76
1044.09
1044.76
1043.32
1042.97
1042.93
1043.24
1043.9
1042.76
1042.37
1042.31
1042.59
1043.25
1042.46
1042.04
1041.94
1042.2
1042.84
1042.41
1041.96
1041.84
1042.08
1042.71
1042.48
1042.39
1044.1
1045.27
1045.34
1045.62
1044.54
1041.81
1042.15
1042
1042.94
1042.89
1042.71
1043.48
1043.62
1044.08
1041.75
1041.89
1042.76
1042.85
1042.33
1042.48
1043.12
1043.29
1044.34
1044.35
1043.46
1043.46
1042.1
1042.14
1041.76
1042.11
1042.24
1041.87
1043.04
1043.99
1042.83
1041.03
1040.33
1040.05
1040.14
1040.6
1041.31
1040.7
1040.46
1040.6
1041.17
1043.36
1043.04
1043.03
1043.37
1044.04
1044.55
1044.25
1044.27
1044.61
1045.3
1044.62
1044.31
1044.32
1044.67
1045.35
1044.9
1044.6
1044.62
1044.97
1045.65
1043.81
1043.5
1043.5
1043.84
1044.52
1040.54
1039.9
1039.67
1039.79
1040.25
1040.91
1040.31
1040.1
1040.24
1040.75
1041.06
1040.54
1040.37
1040.57
1041.18
1041.83
1041.29
1041.13
1041.32
1041.9
1042.08
1041.68
1041.61
1041.88
1042.53
1041.83
1041.38
1041.26
1041.5
1042.13
1042.7
1042.33
1042.29
1042.58
1043.24
1042.83
1042.44
1042.38
1042.67
1043.32
1043.31
1042.95
1042.91
1043.22
1043.88
1040.49
1039.87
1039.64
1039.77
1040.25
1040.98
1040.5
1040.36
1040.58
1041.2
1041.96
1041.57
1041.51
1041.8
1042.45
1042.06
1041.69
1041.64
1041.94
1042.6
1041.5
1041.09
1041
1041.27
1041.92
1041.67
1041.28
1041.21
1041.5
1042.15
1042.35
1042
1041.96
1042.27
1042.93
1042.53
1042.18
1042.16
1042.47
1043.14
1043.6
1043.26
1043.25
1043.57
1044.24
1043.61
1043.29
1043.29
1043.62
1044.29
1042.69
1042.33
1042.3
1042.61
1043.27
1042.7
1042.35
1042.33
1042.64
1043.31
1040.74
1040.08
1039.83
1039.93
1040.41
1041.15
1040.6
1040.41
1040.59
1041.18
1040.67
1040.11
1039.89
1040.05
1040.58
1041.22
1040.76
1040.63
1040.86
1041.48
1041.41
1040.99
1040.9
1041.16
1041.81
1040.96
1040.47
1040.31
1040.52
1041.14
1042.27
1041.91
1041.88
1042.19
1042.85
1043.25
1042.92
1042.91
1043.24
1043.92
1042.05
1041.68
1041.63
1041.93
1042.59
1043.23
1042.59
1042.32
1042.41
1042.82
1043.64
1042.51
1042.56
1041.43
1041.41
1042.62
1042.71
1041.47
1041.52
1043.68
1044.92
1043.69
1044.8
1043.81
1043.75
1044.6
1042.48
1042.54
1041.39
1041.36
1042.6
1042.7
1041.43
1041.51
1043.75
1045.05
1043.76
1044.91
1043.87
1043.78
1044.69
1042.49
1042.56
1041.38
1041.34
1042.63
1042.73
1041.44
1041.52
1043.81
1045.39
1043.82
1045.2
1043.93
1043.84
1044.94
1042.73
1042.79
1041.59
1041.54
1042.87
1043
1041.65
1041.75
1044.13
1045.8
1044.13
1045.6
1044.23
1044.12
1045.29
1043.14
1043.21
1042.01
1041.96
1043.28
1043.43
1042.07
1042.17
1044.55
1046.12
1044.54
1045.96
1044.63
1044.55
1045.66
1043.89
1043.95
1042.78
1042.73
1044.01
1044.14
1042.84
1042.93
1045.22
1046.66
1045.2
1046.51
1045.27
1045.19
1046.21
1039.71
1039.7
1040.47
1040.47
1039.72
1039.74
1040.49
1040.52
1039.17
1038.76
1039.19
1038.82
1039.2
1039.27
1038.95
1039.65
1039.66
1040.42
1040.41
1039.69
1039.73
1040.46
1040.5
1039.09
1038.76
1039.13
1038.84
1039.17
1039.27
1038.97
1039.63
1039.65
1040.41
1040.38
1039.7
1039.76
1040.46
1040.52
1039.13
1038.92
1039.18
1039
1039.25
1039.36
1039.12
1039.84
1039.87
1040.61
1040.58
1039.94
1040.01
1040.67
1040.74
1039.39
1039.3
1039.45
1039.37
1039.55
1039.67
1039.49
1040.28
1040.31
1041.04
1041.01
1040.4
1040.5
1041.1
1041.18
1039.88
1039.86
1039.95
1039.91
1040.06
1040.2
1040.01
1041.08
1041.11
1041.83
1041.79
1041.2
1041.29
1041.89
1041.96
1040.69
1040.58
1040.75
1040.64
1040.85
1040.96
1040.74
1049.17
1048.97
1048.58
1048.25
1047.73
1047.4
1046.58
1046.31
1046.83
1046.51
1047.74
1047.42
1048.4
1048.1
1048.95
1048.73
1047.46
1047.02
1046.89
1046.29
1046.05
1045.5
1045.53
1044.82
1049.89
1051.08
1049.67
1050.79
1049.33
1050.48
1048.98
1050.06
1048.1
1048.75
1047.5
1048.32
1049.75
1049.06
1046.19
1045.15
1045.61
1044.84
1044.91
1044.03
1044.22
1043.55
1047.4
1046.32
1046.77
1045.96
1048.37
1047.33
1052.45
1053.28
1051.89
1052.76
1051.85
1052.89
1051.17
1052.13
1050.98
1052.39
1049.94
1051.25
1049.13
1050.43
1048.2
1049.52
1047.11
1046.92
1046.21
1046.12
1045.25
1045
1044.53
1044.28
1047.85
1048.08
1048.9
1048.93
1045.45
1045.45
1044.76
1044.9
1043.88
1043.68
1043.27
1043.17
1046.98
1047.37
1046.22
1046.8
1049.45
1051.03
1050.04
1051.81
1050.58
1052.2
1050.93
1052.76
1048.52
1050.05
1049.31
1051.05
1047.69
1049.21
1048.73
1050.45
1054.42
1056.22
1054.71
1056.49
1053.85
1055.52
1054.39
1056.1
1052.92
1054.21
1053.88
1055.28
1048.39
1046.18
1050.39
1051.9
1053.55
1046.5
1048.84
1051.23
1052.84
1054.61
1045.91
1047.98
1050
1051.91
1053.79
1057.88
1058.71
1058.77
1059.49
1057.01
1057.96
1058.18
1058.97
1055.55
1056.61
1057.21
1058.15
1047.03
1047.91
1049.58
1050.77
1051.93
1053.15
1053.8
1055.01
1056.29
1057.49
1046.3
1047.01
1048.63
1049.85
1050.81
1052.2
1052.99
1054.49
1055.74
1057.32
1047.52
1048.9
1046.53
1047.76
1045.23
1045.65
1044.35
1044.59
1048.86
1050.48
1049.82
1051.54
1045.7
1046.93
1045.16
1046.33
1043.64
1043.87
1043.13
1043.31
1047.98
1049.63
1047.44
1049.05
1051.51
1053.46
1054.79
1057.15
1052.28
1054.33
1055.31
1057.62
1050.8
1052.69
1054.3
1056.62
1050.13
1052.04
1053.6
1055.79
1058.98
1059.37
1060.07
1059.12
1059.3
1059.95
1058.42
1058.89
1059.64
1058.7
1058.92
1059.62
1057.31
1057.93
1058.76
1058.08
1058.4
1059.18
1048.99
1050.22
1051.54
1052.04
1053.12
1054.29
1054.33
1055.27
1056.3
1055.97
1056.76
1057.75
1057.59
1058.02
1058.94
1048.01
1049.4
1050.89
1051.5
1052.95
1054.42
1053.87
1055.15
1056.48
1055.79
1056.77
1057.94
1057.58
1058.13
1059.19
1043.56
1043.11
1043.17
1042.59
1044.68
1044.13
1044.23
1043.55
1043.4
1042.51
1043.29
1042.47
1043.11
1042.32
1042.92
1042.18
1042.28
1042.66
1042.03
1042.48
1042.14
1041.83
1042.15
1041.63
1043.01
1042.44
1042.03
1041.53
1041.67
1041.21
1041.65
1041.17
1041.62
1040.84
1041.78
1041.05
1041.48
1040.68
1041.52
1040.79
1041.36
1040.49
1041.14
1040.36
1040.98
1040.31
1040.58
1040.03
1042.53
1042.14
1042.02
1041.59
1043.7
1043.36
1043.1
1042.74
1041.26
1040.75
1041.71
1041.24
1041.52
1041.11
1041.03
1040.7
1042.54
1042.21
1042
1041.74
1040.83
1040.34
1040.38
1039.97
1040.64
1039.98
1040.22
1039.84
1041
1040.28
1040.64
1040.19
1040.29
1039.71
1039.85
1039.54
1039.9
1039.42
1039.53
1039.28
1041.66
1042.06
1040.92
1041.33
1041.64
1042.06
1040.85
1041.28
1041.6
1041.98
1040.75
1041.14
1042.91
1044.31
1042.04
1041.36
1040.63
1044.61
1043.22
1042.42
1041.74
1040.97
1044.03
1042.67
1041.7
1041.05
1040.54
1042.74
1043.68
1042.01
1042.93
1042.68
1043.57
1041.9
1042.77
1042.52
1043.37
1041.68
1042.49
1045
1045.73
1043.53
1044.27
1042.7
1043.46
1042.06
1042.84
1041.34
1042.1
1044.27
1044.71
1042.88
1043.31
1041.93
1042.45
1041.34
1041.96
1040.89
1041.66
1042.06
1042.22
1041.49
1041.51
1043.33
1043.45
1042.65
1042.58
1040.76
1040.96
1041.25
1041.58
1041.06
1040.96
1040.65
1040.51
1042.13
1041.94
1041.66
1041.44
1040.37
1040.47
1040.01
1040.07
1040.32
1040.73
1040.14
1040.77
1040.76
1041.28
1040.49
1041.2
1039.96
1040.27
1039.85
1040.4
1039.66
1039.94
1039.59
1040.07
1044.96
1046.24
1047.45
1044.5
1045.94
1047.15
1044.77
1046.07
1047.3
1044.28
1045.73
1046.99
1044.5
1045.76
1047.02
1043.92
1045.44
1046.79
1046.71
1047.94
1049.28
1045.28
1046.55
1047.91
1044.48
1045.81
1047.2
1043.92
1045.24
1046.59
1043.54
1045.14
1046.61
1045.5
1046.83
1048.35
1044.14
1045.5
1047.02
1043.39
1044.83
1046.4
1043.07
1044.58
1046.16
1043.17
1044.84
1046.46
1040.54
1041.11
1042.57
1045.23
1040.79
1041.4
1042.91
1045.59
1040.43
1041.03
1042.49
1045.17
1040.58
1041.24
1042.76
1045.45
1040.29
1040.92
1042.33
1044.93
1040.23
1040.94
1042.44
1045.1
1040.28
1041.06
1042.67
1045.39
1040.13
1041.01
1042.67
1045.41
1039.97
1040.72
1042.18
1044.82
1040.01
1040.82
1042.17
1044.54
1040.19
1040.87
1042.2
1044.65
1040.27
1041
1042.25
1044.49
1039.79
1040.61
1042.19
1044.92
1039.8
1040.67
1042.09
1044.52
1039.6
1040.5
1042.13
1044.85
1039.61
1040.54
1042
1044.43
1040.57
1041.09
1042.42
1044.93
1040.91
1041.35
1042.49
1044.68
1040.54
1041.08
1042.39
1044.88
1040.89
1041.36
1042.49
1044.66
1040.5
1041.07
1042.34
1044.75
1040.82
1041.33
1042.47
1044.61
1040.49
1041.1
1042.31
1044.58
1040.75
1041.32
1042.44
1044.52
1040.52
1041.18
1042.34
1044.42
1041.43
1041.81
1042.84
1044.41
1042.02
1042.36
1043.41
1044.89
1041.37
1041.78
1042.81
1044.38
1041.95
1042.33
1043.39
1044.88
1041.25
1041.71
1042.77
1044.35
1041.83
1042.27
1043.36
1044.85
1041.07
1041.62
1042.7
1044.29
1041.67
1042.19
1043.31
1044.82
1040.85
1041.5
1042.62
1044.23
1041.48
1042.09
1043.26
1044.78
1040.43
1041.26
1042.51
1044.18
1041
1041.82
1043.09
1044.67
1040.64
1041.38
1042.57
1044.21
1041.24
1041.96
1043.18
1044.72
1040.25
1041.15
1042.46
1044.15
1040.78
1041.69
1043.01
1044.61
1040.08
1041.04
1042.38
1044.09
1040.58
1041.56
1042.93
1044.54
1049.26
1052.5
1055.27
1057.52
1059.27
1049.47
1052.68
1055.43
1057.68
1059.43
1049.23
1052.49
1055.26
1057.51
1059.26
1049.43
1052.65
1055.41
1057.66
1059.41
1049.19
1052.47
1055.25
1057.5
1059.25
1049.28
1052.52
1055.29
1057.55
1059.3
1049.36
1052.61
1055.38
1057.64
1059.39
1049.32
1052.57
1055.35
1057.62
1059.37
1049.16
1052.45
1055.24
1057.5
1059.25
1049.33
1052.7
1055.49
1057.75
1059.5
1049.2
1052.51
1055.3
1057.56
1059.3
1049.38
1052.75
1055.54
1057.8
1059.55
1049.16
1052.46
1055.24
1057.51
1059.26
1049.35
1052.73
1055.52
1057.79
1059.53
1049.11
1052.42
1055.22
1057.49
1059.24
1049.34
1052.73
1055.53
1057.8
1059.55
1049.28
1052.58
1055.35
1057.6
1059.35
1049.53
1052.87
1055.64
1057.89
1059.64
1049.28
1052.59
1055.36
1057.62
1059.36
1049.52
1052.88
1055.65
1057.9
1059.65
1049.28
1052.61
1055.39
1057.65
1059.4
1049.53
1052.89
1055.67
1057.92
1059.67
1049.36
1052.72
1055.5
1057.76
1059.51
1049.57
1052.94
1055.72
1057.98
1059.72
1049.5
1052.88
1055.66
1057.92
1059.66
1062.57
1063.08
1062.32
1062.85
1061.9
1062.49
1061.36
1062.05
1060.82
1061.62
1059.97
1060.9
1060.41
1061.31
1059.55
1060.44
1059.11
1059.91
1068.21
1074.37
1079.56
1083.62
1086.42
1068.12
1074.33
1079.57
1083.66
1086.51
1068.1
1074.31
1079.52
1083.59
1086.4
1068.02
1074.29
1079.54
1083.65
1086.49
1067.89
1074.2
1079.45
1083.53
1086.35
1067.82
1074.17
1079.47
1083.59
1086.45
1067.6
1074.03
1079.34
1083.45
1086.28
1067.56
1074.02
1079.37
1083.52
1086.39
1067.27
1073.82
1079.19
1083.34
1086.19
1067.28
1073.84
1079.24
1083.43
1086.31
1066.56
1073.3
1078.81
1083.04
1085.92
1066.64
1073.38
1078.9
1083.15
1086.06