/*--------------------------------*- C++ -*----------------------------------*\
  =========                 |
  \\      /  F ield         | OpenFOAM: The Open Source CFD Toolbox
   \\    /   O peration     | Website:  https://openfoam.org
    \\  /    A nd           | Version:  12
     \\/     M anipulation  |
\*---------------------------------------------------------------------------*/
FoamFile
{
    format      ascii;
    class       volScalarField;
    location    "590";
    object      T;
}
// * * * * * * * * * * * * * * * * * * * * * * * * * * * * * * * * * * * * * //

dimensions      [];

internalField   nonuniform List<scalar> 
4480
(
2.56112e-05
0.000973777
0.0514389
0.199984
0.358876
0.492
0.595393
0.673743
0.732839
0.777581
0.811709
0.837968
0.858347
0.874291
0.886849
0.896789
0.904679
0.910943
0.915898
0.919782
0.922786
0.925048
0.926681
0.927769
0.928377
0.928562
0.928366
0.927965
0.92756
0.927146
0.926726
0.926297
0.925852
0.925393
0.924916
0.92442
0.923902
0.923361
0.922789
0.922191
0.921563
0.920897
0.920192
0.91945
0.918663
0.917827
0.91694
0.916003
0.915005
0.91394
0.912814
0.911622
0.910349
0.909
0.907568
0.906044
0.904432
0.902729
0.900918
0.899007
0.896982
0.894844
0.892585
0.890206
0.887692
0.885054
0.88227
0.879356
0.876283
0.873073
0.8697
0.866172
0.862479
0.85862
0.854587
0.850378
0.845989
0.841414
0.836647
0.831686
0.826525
0.821159
0.815584
0.80983
0.803906
0.797807
0.791537
0.785096
0.778487
0.771715
0.764785
0.757708
0.750494
0.743155
0.735714
0.728185
0.720598
0.712981
0.705372
0.697814
0.690357
0.683058
0.675972
0.669194
0.662792
0.656867
0.651527
0.646891
0.643081
0.640241
0.638516
0.638058
0.639016
0.64155
0.645792
0.651879
0.659898
0.669913
0.681942
0.695998
0.712256
0.731301
0.754144
0.783285
0.828633
0.894522
0.940246
0.974211
0.966734
0.916801
0.867384
0.790651
0.719286
0.659239
0.601309
0.542411
0.480271
0.411988
0.334353
0.238281
1.04979e-05
0.0189586
0.197581
0.434139
0.618059
0.742068
0.822421
0.874338
0.908301
0.93095
0.946387
0.957146
0.964816
0.970398
0.974525
0.977632
0.979995
0.981806
0.983198
0.984268
0.985084
0.985689
0.986125
0.986414
0.986582
0.986638
0.986596
0.986372
0.98589
0.985177
0.984258
0.983159
0.981905
0.980521
0.979023
0.977435
0.975774
0.974056
0.972291
0.970495
0.968677
0.966846
0.965004
0.963162
0.961324
0.959489
0.957662
0.955842
0.954029
0.952223
0.95042
0.948626
0.946831
0.945034
0.943234
0.941423
0.939608
0.937776
0.935926
0.934061
0.932165
0.93025
0.928298
0.926314
0.924295
0.922243
0.920143
0.917996
0.915807
0.913573
0.911285
0.908945
0.906551
0.904106
0.901596
0.899032
0.896407
0.893716
0.890973
0.888164
0.885288
0.882359
0.879361
0.876311
0.873221
0.87008
0.866895
0.863679
0.860423
0.857145
0.853848
0.85054
0.84723
0.843937
0.840674
0.837453
0.834305
0.831241
0.828294
0.825497
0.822886
0.820494
0.81837
0.816553
0.815109
0.814081
0.81354
0.813536
0.814149
0.815438
0.817475
0.820313
0.824019
0.828641
0.834215
0.840769
0.848308
0.856833
0.866326
0.876787
0.888261
0.900863
0.914736
0.92998
0.946442
0.962752
0.976204
0.984915
0.976647
0.948936
0.920216
0.887828
0.852053
0.812837
0.769206
0.719865
0.663068
0.596652
0.518405
0.427609
0.00156663
0.100701
0.393237
0.638622
0.789765
0.874967
0.922352
0.94916
0.964811
0.974313
0.980328
0.984313
0.987063
0.989035
0.990491
0.991593
0.992442
0.993099
0.993613
0.994011
0.994319
0.994548
0.994715
0.994828
0.994893
0.994916
0.994901
0.994835
0.994692
0.994469
0.994166
0.993776
0.993297
0.992721
0.992051
0.991281
0.990416
0.989459
0.988413
0.987282
0.986076
0.984798
0.983459
0.982064
0.980619
0.979137
0.977618
0.976073
0.974503
0.972918
0.971322
0.969717
0.968104
0.966487
0.964873
0.963254
0.961641
0.960029
0.958417
0.956809
0.955202
0.953598
0.951992
0.950389
0.948786
0.947179
0.945572
0.943961
0.942344
0.940726
0.939094
0.937461
0.935817
0.934166
0.932499
0.930826
0.929144
0.927447
0.925738
0.924024
0.922292
0.920553
0.918797
0.917039
0.915267
0.913495
0.911727
0.909959
0.908192
0.906442
0.904706
0.902992
0.901315
0.899672
0.898081
0.896557
0.895109
0.893753
0.892511
0.891403
0.890445
0.889664
0.889094
0.888753
0.88868
0.888908
0.889461
0.890382
0.891707
0.893462
0.89568
0.898386
0.901606
0.90535
0.909628
0.914427
0.919742
0.92554
0.931789
0.938452
0.945482
0.952815
0.960343
0.967857
0.975018
0.981301
0.985992
0.988174
0.982202
0.964287
0.945793
0.92546
0.90225
0.875047
0.842461
0.80266
0.753183
0.69086
0.612048
0.513538
0.0164889
0.264889
0.594365
0.795038
0.895001
0.942638
0.965743
0.977489
0.983862
0.987605
0.989998
0.991656
0.992886
0.993836
0.994587
0.995188
0.995674
0.996063
0.996373
0.996618
0.996808
0.996951
0.997054
0.997127
0.997171
0.997188
0.997185
0.997155
0.997096
0.997006
0.996884
0.996724
0.996525
0.99628
0.995984
0.995634
0.995225
0.99475
0.99421
0.993601
0.992923
0.992177
0.991363
0.990486
0.989547
0.988553
0.987505
0.986412
0.985275
0.984103
0.982901
0.981671
0.980422
0.979154
0.977876
0.97659
0.975299
0.974003
0.972712
0.971421
0.970139
0.968858
0.967589
0.966331
0.965079
0.963838
0.962611
0.961391
0.960186
0.958988
0.957799
0.956624
0.955456
0.9543
0.953149
0.952006
0.950872
0.94975
0.948633
0.947519
0.946414
0.945319
0.944237
0.943152
0.942077
0.941012
0.939958
0.938921
0.937901
0.936898
0.935918
0.934968
0.934054
0.933176
0.932352
0.931578
0.930876
0.930246
0.929704
0.929265
0.928945
0.928752
0.92871
0.928832
0.929144
0.929653
0.93039
0.931368
0.932606
0.93412
0.935928
0.938035
0.940453
0.943181
0.946209
0.949525
0.953112
0.956937
0.960963
0.96514
0.969409
0.973681
0.977842
0.98173
0.98513
0.987762
0.989251
0.989054
0.984784
0.972321
0.958949
0.944377
0.927744
0.90794
0.883405
0.851824
0.809772
0.75213
0.671586
0.558296
0.0699294
0.468095
0.762633
0.89669
0.95096
0.97314
0.982847
0.987565
0.990186
0.991891
0.993144
0.994149
0.994983
0.995681
0.996261
0.996734
0.997118
0.997424
0.997662
0.997845
0.997982
0.998081
0.998152
0.998197
0.998225
0.998237
0.998237
0.998221
0.998189
0.998138
0.99807
0.997982
0.997874
0.997743
0.997588
0.997403
0.997184
0.996931
0.996636
0.9963
0.995915
0.995484
0.995001
0.994468
0.993882
0.993247
0.992564
0.991834
0.99106
0.990246
0.989396
0.988513
0.987603
0.986667
0.985714
0.984747
0.983768
0.982779
0.981788
0.980795
0.979805
0.978817
0.97784
0.976873
0.97591
0.974966
0.974032
0.973109
0.972205
0.971314
0.970438
0.969574
0.968729
0.967897
0.967081
0.966278
0.965494
0.96472
0.963956
0.963212
0.962477
0.961755
0.961048
0.960352
0.959668
0.958998
0.95834
0.957696
0.957072
0.956467
0.955886
0.955327
0.954803
0.95431
0.953856
0.953445
0.953086
0.952788
0.952553
0.952398
0.952323
0.952342
0.952468
0.952711
0.95308
0.953592
0.954253
0.955074
0.956066
0.957243
0.958599
0.960149
0.961885
0.963808
0.965909
0.968166
0.970567
0.97308
0.975673
0.978296
0.980895
0.9834
0.98572
0.987737
0.989302
0.990229
0.990257
0.989007
0.985619
0.976736
0.966207
0.954772
0.941865
0.926653
0.907787
0.882957
0.848248
0.796764
0.716452
0.58628
0.175505
0.658657
0.877647
0.951543
0.976092
0.985106
0.989008
0.991087
0.992472
0.993576
0.994546
0.995407
0.996154
0.996789
0.997307
0.99772
0.998041
0.99828
0.998457
0.998579
0.998659
0.998709
0.998738
0.998751
0.998754
0.998753
0.998747
0.99874
0.99872
0.99869
0.998649
0.998596
0.998532
0.998454
0.998362
0.998252
0.998125
0.997975
0.997801
0.997602
0.997373
0.997112
0.996816
0.996485
0.996118
0.995711
0.995267
0.994783
0.994265
0.99371
0.993122
0.992504
0.991858
0.991187
0.990494
0.989785
0.989062
0.988327
0.987582
0.986835
0.98609
0.985342
0.984601
0.983864
0.983135
0.982419
0.98171
0.981016
0.980339
0.979672
0.97902
0.978382
0.977762
0.977158
0.976565
0.97599
0.975427
0.974882
0.974351
0.973831
0.973324
0.972834
0.972357
0.971896
0.97144
0.970997
0.97057
0.970156
0.969756
0.969372
0.96901
0.968669
0.96835
0.968057
0.967794
0.967567
0.967378
0.967236
0.967139
0.967095
0.967115
0.967199
0.967359
0.967603
0.967931
0.968359
0.968884
0.969523
0.970274
0.971141
0.972133
0.973241
0.974467
0.975805
0.977248
0.978775
0.980376
0.98202
0.983681
0.985318
0.986886
0.988326
0.989566
0.990516
0.991065
0.991066
0.990322
0.988561
0.985399
0.979123
0.970406
0.960866
0.950155
0.937708
0.922549
0.902699
0.874427
0.829911
0.752611
0.606213
0.319119
0.807044
0.942392
0.975979
0.985734
0.989414
0.991273
0.992515
0.993553
0.994522
0.99545
0.9963
0.997027
0.997619
0.998083
0.998434
0.998684
0.99885
0.998947
0.998992
0.999
0.998983
0.998952
0.99892
0.998889
0.998866
0.99885
0.998844
0.998835
0.998822
0.998806
0.998783
0.998753
0.998716
0.998671
0.998612
0.998542
0.998458
0.998357
0.99824
0.998102
0.997942
0.997759
0.997551
0.997318
0.997056
0.996764
0.996443
0.996095
0.995717
0.995312
0.994882
0.994427
0.993948
0.993451
0.992938
0.992407
0.991867
0.991319
0.990763
0.990205
0.989644
0.989086
0.98853
0.987983
0.987443
0.986909
0.986387
0.985875
0.985377
0.984889
0.984417
0.983953
0.983507
0.983074
0.982653
0.982244
0.981848
0.981467
0.981101
0.980741
0.980398
0.98007
0.979746
0.979435
0.979134
0.978845
0.978566
0.978301
0.97805
0.977812
0.977592
0.977392
0.977209
0.977053
0.976917
0.976814
0.976742
0.976703
0.976705
0.976748
0.976842
0.976989
0.97719
0.977455
0.977785
0.978186
0.97866
0.979208
0.979838
0.980542
0.981323
0.982177
0.983099
0.984078
0.985099
0.986149
0.987209
0.988251
0.989242
0.990144
0.990905
0.991466
0.991757
0.991682
0.991123
0.989931
0.987898
0.984766
0.980031
0.972825
0.964567
0.955263
0.944505
0.931655
0.915142
0.891846
0.854044
0.782064
0.62177
0.475455
0.903704
0.971836
0.985086
0.98919
0.991096
0.992307
0.993297
0.994246
0.995217
0.996178
0.997035
0.997737
0.998279
0.998676
0.998949
0.999115
0.999189
0.99919
0.999137
0.999049
0.998942
0.998836
0.998739
0.99866
0.998604
0.998573
0.998565
0.998566
0.998572
0.998582
0.998592
0.998601
0.998608
0.998609
0.998602
0.998585
0.998559
0.998521
0.998466
0.998398
0.998312
0.998208
0.998085
0.997939
0.997776
0.997589
0.997379
0.997145
0.996892
0.996614
0.996314
0.995995
0.995658
0.995302
0.99493
0.994546
0.994151
0.993746
0.993336
0.992923
0.992503
0.992087
0.991672
0.991257
0.99085
0.990449
0.990058
0.989671
0.989294
0.988929
0.988576
0.988229
0.987898
0.987574
0.987262
0.986962
0.986671
0.986395
0.986127
0.985867
0.985624
0.985386
0.98516
0.984939
0.984729
0.984526
0.984331
0.984147
0.983978
0.983814
0.983666
0.983534
0.983413
0.983309
0.983226
0.983163
0.983125
0.98311
0.983126
0.983169
0.983251
0.983364
0.983521
0.983721
0.983963
0.984256
0.984594
0.984987
0.985428
0.985922
0.98646
0.987042
0.987663
0.988312
0.988978
0.989647
0.9903
0.990913
0.991463
0.991907
0.99221
0.992316
0.992167
0.99168
0.990761
0.989284
0.987099
0.984021
0.97985
0.974103
0.966782
0.958466
0.948818
0.937421
0.92302
0.903197
0.871048
0.805655
0.634737
0.626603
0.95233
0.982345
0.98829
0.990633
0.991952
0.992931
0.993827
0.994774
0.995792
0.996803
0.997665
0.998324
0.998799
0.999117
0.999302
0.999367
0.999328
0.999206
0.999023
0.998808
0.998586
0.998375
0.998192
0.998049
0.997952
0.9979
0.99789
0.997901
0.99793
0.997973
0.998025
0.998081
0.998142
0.998201
0.998254
0.9983
0.998336
0.998358
0.99837
0.998365
0.998348
0.998312
0.998259
0.998187
0.998098
0.997988
0.997861
0.997715
0.997549
0.997365
0.997162
0.996942
0.996707
0.996455
0.996192
0.995914
0.995627
0.995331
0.995028
0.994723
0.994413
0.9941
0.993789
0.99348
0.993173
0.992872
0.992576
0.992284
0.992003
0.991728
0.99146
0.991202
0.990948
0.990707
0.990474
0.99025
0.990035
0.989829
0.989631
0.989439
0.989261
0.989088
0.988923
0.988762
0.988609
0.988464
0.988326
0.988196
0.98807
0.987957
0.987849
0.987757
0.987672
0.987601
0.987544
0.987503
0.987474
0.987469
0.987479
0.987517
0.987574
0.987657
0.987768
0.98791
0.98808
0.988286
0.988521
0.988789
0.989089
0.989422
0.989779
0.990161
0.990561
0.990969
0.991374
0.991769
0.992129
0.992437
0.992667
0.992787
0.992764
0.992547
0.992084
0.991309
0.99014
0.988476
0.986198
0.983172
0.979254
0.97431
0.967997
0.960424
0.951562
0.941147
0.928085
0.910531
0.882641
0.823974
0.646094
0.757116
0.968562
0.98564
0.989714
0.991438
0.992496
0.99336
0.994229
0.995204
0.996289
0.997359
0.998205
0.998801
0.999196
0.99943
0.999515
0.99946
0.999275
0.998992
0.998641
0.998258
0.997881
0.997535
0.997244
0.99702
0.996869
0.996792
0.996779
0.996805
0.996863
0.996949
0.997056
0.997176
0.997303
0.997433
0.997562
0.997683
0.997794
0.997892
0.997976
0.998046
0.998097
0.99813
0.998145
0.998143
0.998124
0.998084
0.998026
0.99795
0.997858
0.997745
0.997618
0.997475
0.997316
0.997145
0.996964
0.996767
0.996564
0.996351
0.996129
0.995906
0.995678
0.995447
0.995215
0.994984
0.994755
0.994528
0.994307
0.994087
0.993874
0.993663
0.993462
0.993266
0.993078
0.992894
0.992718
0.992549
0.992385
0.992232
0.992081
0.991939
0.991805
0.991674
0.991552
0.991432
0.99132
0.991212
0.991108
0.991009
0.990919
0.990833
0.990754
0.990682
0.990621
0.990567
0.990523
0.990488
0.990466
0.990459
0.990462
0.990484
0.990519
0.990572
0.990646
0.990738
0.990851
0.990983
0.991134
0.991308
0.991499
0.991706
0.991926
0.992155
0.992389
0.992616
0.992828
0.993012
0.993152
0.993231
0.993222
0.993101
0.992831
0.992373
0.991678
0.990693
0.98934
0.987547
0.985208
0.982226
0.978485
0.97387
0.968277
0.961505
0.953239
0.94353
0.93136
0.915263
0.89032
0.837608
0.656418
0.83983
0.977115
0.987756
0.990581
0.991962
0.992875
0.993674
0.994541
0.995559
0.996728
0.997848
0.99866
0.999177
0.999489
0.999632
0.999604
0.999398
0.99903
0.998534
0.997962
0.997363
0.996784
0.996266
0.995839
0.995513
0.995301
0.995196
0.995181
0.995228
0.995328
0.995472
0.99565
0.995851
0.996067
0.996289
0.99651
0.996724
0.996927
0.997118
0.997289
0.997443
0.997578
0.997689
0.99778
0.997849
0.997899
0.997927
0.997936
0.997926
0.997898
0.997851
0.997788
0.997712
0.997618
0.997511
0.997391
0.997262
0.997123
0.996974
0.996819
0.996659
0.996494
0.996326
0.996157
0.995986
0.995816
0.995648
0.995478
0.995316
0.995153
0.994997
0.994845
0.994696
0.994553
0.994411
0.99428
0.994151
0.994027
0.993909
0.993792
0.993683
0.993582
0.99348
0.993387
0.993299
0.993211
0.993126
0.993046
0.992973
0.992899
0.992835
0.992772
0.992714
0.992664
0.992616
0.992579
0.992549
0.992525
0.992508
0.992504
0.99251
0.992525
0.99255
0.992591
0.992638
0.992703
0.992775
0.99286
0.992956
0.993061
0.993171
0.993284
0.993393
0.993495
0.993582
0.993641
0.993663
0.99363
0.993526
0.993333
0.993022
0.992563
0.991918
0.991046
0.989897
0.988409
0.986516
0.984138
0.981189
0.977573
0.973189
0.967929
0.961652
0.954146
0.944971
0.933446
0.918306
0.895278
0.847213
0.666068
0.899967
0.981895
0.98914
0.991272
0.992351
0.993142
0.993902
0.994781
0.995856
0.997111
0.998285
0.999038
0.999464
0.999694
0.999745
0.999581
0.999182
0.99857
0.997797
0.996935
0.996058
0.995229
0.9945
0.993906
0.993464
0.993181
0.993052
0.99304
0.993119
0.993278
0.9935
0.993772
0.994079
0.994406
0.994744
0.995084
0.995416
0.995735
0.996035
0.996312
0.996564
0.996793
0.996997
0.997171
0.997323
0.997447
0.997548
0.997625
0.997681
0.997715
0.997731
0.997728
0.997708
0.997673
0.997622
0.997559
0.997485
0.997399
0.997306
0.997204
0.997095
0.996982
0.996864
0.996742
0.996622
0.996497
0.996373
0.996249
0.996127
0.996007
0.995889
0.995774
0.995661
0.995551
0.995446
0.995344
0.995247
0.99515
0.995057
0.994969
0.994885
0.994806
0.994726
0.994653
0.994581
0.994514
0.994445
0.994382
0.994321
0.994261
0.994206
0.994153
0.994104
0.994057
0.994016
0.993979
0.993946
0.993919
0.993897
0.993879
0.993867
0.993863
0.993866
0.993874
0.993888
0.993908
0.993931
0.993961
0.993994
0.994026
0.994055
0.99408
0.994093
0.994089
0.994057
0.993993
0.993883
0.993715
0.993468
0.993124
0.99266
0.992047
0.99125
0.990236
0.98896
0.987365
0.985397
0.98299
0.980063
0.976538
0.972321
0.967301
0.961332
0.954195
0.945535
0.934679
0.920203
0.898386
0.853457
0.675301
0.935436
0.984849
0.99009
0.991767
0.99267
0.993346
0.994065
0.994961
0.996094
0.997441
0.998664
0.999339
0.999672
0.999829
0.999783
0.999449
0.998795
0.997861
0.99673
0.995501
0.994278
0.993142
0.992159
0.99137
0.990796
0.990443
0.990297
0.990297
0.990427
0.990667
0.990995
0.99139
0.991833
0.992305
0.992789
0.993275
0.993751
0.994208
0.99464
0.995043
0.995416
0.995754
0.996059
0.996331
0.996572
0.996779
0.99696
0.997111
0.997234
0.997334
0.997412
0.99747
0.997504
0.997523
0.997526
0.997514
0.997489
0.997451
0.997406
0.997347
0.997285
0.997214
0.997138
0.997059
0.996974
0.99689
0.996801
0.996713
0.996625
0.996537
0.996449
0.996364
0.996281
0.996197
0.996117
0.996038
0.995961
0.995887
0.995816
0.995748
0.99568
0.995613
0.995553
0.995492
0.995433
0.995376
0.995321
0.995267
0.995215
0.995163
0.995113
0.995067
0.995021
0.994975
0.994935
0.994896
0.994856
0.994823
0.994791
0.994759
0.994734
0.994711
0.994688
0.99467
0.994653
0.994636
0.994616
0.994599
0.994575
0.994547
0.99451
0.99446
0.994389
0.994298
0.994172
0.994004
0.993782
0.993497
0.99313
0.992662
0.992068
0.991331
0.990413
0.989282
0.987903
0.986222
0.984194
0.981758
0.978849
0.975391
0.971296
0.966454
0.960715
0.953863
0.945537
0.935078
0.921116
0.900065
0.856948
0.68428
0.950718
0.987657
0.990767
0.992122
0.992891
0.993518
0.994185
0.995086
0.996279
0.997722
0.998996
0.999573
0.999813
0.999913
0.999755
0.9992
0.998213
0.99686
0.995274
0.993592
0.991949
0.990448
0.989171
0.988167
0.987454
0.987035
0.986889
0.986918
0.987122
0.987471
0.987938
0.988491
0.989105
0.989755
0.99042
0.991083
0.991729
0.992349
0.992938
0.993487
0.993996
0.994462
0.994885
0.995267
0.995607
0.995909
0.996174
0.996405
0.996603
0.996772
0.996914
0.99703
0.997124
0.997196
0.99725
0.997284
0.997307
0.997314
0.99731
0.997295
0.997268
0.997236
0.997197
0.997153
0.997102
0.997049
0.996992
0.996933
0.996872
0.996811
0.996749
0.996686
0.996623
0.996563
0.996503
0.99644
0.996383
0.996323
0.996268
0.99621
0.996157
0.996102
0.996051
0.996
0.995952
0.995902
0.995853
0.995806
0.995758
0.995711
0.995663
0.995616
0.995571
0.995526
0.995481
0.995437
0.995392
0.995348
0.995307
0.995265
0.995222
0.99518
0.995136
0.995091
0.995043
0.994993
0.994938
0.994875
0.994806
0.994724
0.994628
0.994511
0.994372
0.994202
0.993993
0.993737
0.993425
0.993039
0.992568
0.991993
0.991294
0.990448
0.989426
0.988202
0.986735
0.984982
0.982906
0.980447
0.97755
0.974141
0.970139
0.965429
0.959866
0.953232
0.945168
0.935033
0.921483
0.901036
0.859207
0.690748
0.960152
0.988687
0.991259
0.99237
0.993042
0.993624
0.994289
0.995157
0.99641
0.997949
0.999276
0.999743
0.999904
0.99996
0.999668
0.998819
0.997394
0.995514
0.993364
0.991137
0.988996
0.987077
0.985471
0.984232
0.983379
0.982909
0.982787
0.982873
0.983184
0.983683
0.984331
0.985085
0.985909
0.986775
0.987654
0.988526
0.989373
0.990185
0.99095
0.991664
0.992327
0.992935
0.993489
0.993991
0.994442
0.994845
0.995205
0.995519
0.995797
0.996038
0.996247
0.996426
0.996578
0.996704
0.996809
0.996893
0.996959
0.997009
0.997045
0.997068
0.997079
0.997081
0.997074
0.99706
0.997039
0.997013
0.996982
0.996948
0.996911
0.99687
0.996828
0.996786
0.996742
0.996697
0.996651
0.996606
0.996559
0.996513
0.996466
0.99642
0.996374
0.996331
0.996286
0.996242
0.996197
0.996152
0.996106
0.996063
0.996015
0.995971
0.995922
0.995874
0.995826
0.995779
0.995728
0.995679
0.995626
0.995573
0.99552
0.995462
0.995404
0.995344
0.995277
0.995208
0.995134
0.995053
0.994963
0.994862
0.994748
0.994618
0.994468
0.994296
0.994094
0.993855
0.993571
0.993238
0.992843
0.992372
0.991811
0.991145
0.990354
0.989416
0.98831
0.987002
0.985459
0.983652
0.981534
0.979055
0.976165
0.972794
0.96886
0.964254
0.95883
0.95237
0.944518
0.934642
0.921427
0.90146
0.860612
0.695258
0.966616
0.989466
0.99165
0.992529
0.993112
0.993668
0.994342
0.995219
0.996486
0.998121
0.999508
0.999861
0.999955
0.999984
0.999519
0.998282
0.996297
0.993763
0.990939
0.98807
0.985361
0.98297
0.981004
0.979521
0.978541
0.978045
0.977922
0.978104
0.978576
0.979282
0.980167
0.981177
0.982265
0.983392
0.984525
0.98564
0.986716
0.987742
0.988707
0.989605
0.990436
0.991199
0.991894
0.992525
0.993094
0.993605
0.994062
0.99447
0.994829
0.995146
0.995426
0.995668
0.995879
0.99606
0.996215
0.996347
0.996457
0.996548
0.996623
0.996683
0.996727
0.996761
0.996785
0.996798
0.996804
0.996804
0.996795
0.996783
0.996767
0.996746
0.996721
0.996693
0.996664
0.996632
0.996599
0.996565
0.99653
0.996491
0.996454
0.996416
0.996375
0.996335
0.996295
0.996256
0.996214
0.99617
0.996127
0.996081
0.996036
0.995988
0.995939
0.995889
0.995835
0.995782
0.995725
0.995668
0.995605
0.995541
0.995474
0.995403
0.99533
0.995247
0.995163
0.995071
0.994967
0.994856
0.994733
0.994596
0.994443
0.994269
0.99407
0.993846
0.993586
0.993285
0.99294
0.992537
0.992068
0.99152
0.990881
0.990133
0.989263
0.988246
0.987064
0.985688
0.984087
0.982229
0.980076
0.977582
0.974695
0.971355
0.967473
0.962949
0.957638
0.951319
0.943642
0.933983
0.92104
0.901467
0.861377
0.698278
0.971251
0.990028
0.991875
0.992613
0.993122
0.993643
0.994331
0.995263
0.996518
0.998239
0.999695
0.999935
0.999982
0.999994
0.999299
0.997562
0.994878
0.991556
0.987941
0.984337
0.980989
0.978079
0.975729
0.974005
0.97292
0.972439
0.972342
0.972674
0.973366
0.97434
0.975521
0.976843
0.978244
0.979675
0.981099
0.982487
0.983819
0.985076
0.986255
0.987352
0.988362
0.989287
0.99013
0.990895
0.991587
0.992209
0.992767
0.993266
0.993711
0.994106
0.994454
0.994762
0.995033
0.99527
0.995477
0.995658
0.995809
0.995941
0.996052
0.996145
0.996226
0.996288
0.996339
0.996381
0.996411
0.996432
0.996446
0.996452
0.996454
0.996448
0.99644
0.996425
0.996409
0.996386
0.996365
0.996338
0.996309
0.996279
0.996248
0.996214
0.996178
0.996142
0.996104
0.996064
0.996022
0.99598
0.995935
0.995889
0.995841
0.99579
0.995736
0.995679
0.995622
0.99556
0.995497
0.995428
0.995356
0.995281
0.9952
0.995115
0.995022
0.994924
0.994816
0.994699
0.994572
0.99443
0.994277
0.994105
0.993914
0.9937
0.993457
0.993183
0.992871
0.992517
0.992111
0.991645
0.99111
0.990494
0.989787
0.988971
0.988031
0.986947
0.9857
0.984265
0.982609
0.98071
0.978529
0.97602
0.973137
0.969818
0.965982
0.961526
0.956307
0.950108
0.942583
0.933104
0.920402
0.901155
0.861641
0.700147
0.974663
0.990422
0.991989
0.992623
0.993059
0.993552
0.994252
0.995241
0.996547
0.998296
0.999838
0.999976
0.999995
0.999999
0.999
0.996625
0.993091
0.988844
0.984324
0.979899
0.975847
0.972374
0.969622
0.967664
0.966509
0.966101
0.966127
0.966679
0.967666
0.968976
0.97052
0.972209
0.973967
0.975739
0.977479
0.979163
0.980761
0.982267
0.983666
0.984963
0.986155
0.987245
0.988237
0.989137
0.98995
0.990685
0.991343
0.991933
0.992462
0.992935
0.993353
0.993725
0.994054
0.994345
0.994601
0.994825
0.995023
0.995192
0.995342
0.995467
0.995578
0.995669
0.995747
0.995812
0.995865
0.995906
0.99594
0.995963
0.99598
0.995989
0.995993
0.99599
0.995984
0.99597
0.995955
0.995937
0.995914
0.995888
0.995859
0.995828
0.995796
0.995758
0.99572
0.995682
0.995639
0.995596
0.995547
0.995498
0.995445
0.995389
0.995329
0.995267
0.9952
0.995132
0.995058
0.99498
0.994897
0.994808
0.994713
0.994609
0.9945
0.994383
0.994253
0.994115
0.993963
0.993794
0.993608
0.993405
0.993178
0.992923
0.99264
0.992322
0.991962
0.991554
0.991095
0.990573
0.98998
0.989307
0.988537
0.987659
0.986657
0.985514
0.984212
0.982722
0.981026
0.979093
0.976886
0.974366
0.971488
0.96819
0.964392
0.959994
0.954855
0.948759
0.941363
0.932053
0.919555
0.900586
0.861519
0.701126
0.977211
0.990692
0.992023
0.992557
0.992929
0.993386
0.994099
0.99515
0.99656
0.998308
0.999937
0.999994
0.999998
1
0.998611
0.995443
0.990897
0.985589
0.980062
0.974736
0.96992
0.965839
0.962664
0.960489
0.959323
0.959002
0.959246
0.960137
0.961536
0.963298
0.965292
0.967414
0.969579
0.971723
0.973801
0.975787
0.977657
0.979405
0.981023
0.982515
0.983881
0.985128
0.986262
0.98729
0.988218
0.989059
0.989814
0.990492
0.991098
0.991641
0.992129
0.992565
0.992948
0.993293
0.993597
0.993865
0.994102
0.994312
0.994493
0.994652
0.994788
0.994907
0.99501
0.995097
0.995169
0.995231
0.995278
0.995317
0.995348
0.995369
0.995383
0.99539
0.995393
0.995388
0.995378
0.995365
0.995346
0.995322
0.995294
0.995265
0.995233
0.995196
0.995156
0.995113
0.995067
0.995021
0.994968
0.994913
0.994854
0.994793
0.994727
0.994656
0.994582
0.994502
0.994417
0.994328
0.994231
0.994128
0.994018
0.993899
0.993772
0.993635
0.993485
0.993324
0.993144
0.992949
0.992735
0.992499
0.992239
0.991946
0.991625
0.991263
0.99086
0.990407
0.989899
0.989324
0.988679
0.987951
0.987126
0.986195
0.98514
0.983947
0.982595
0.981066
0.979334
0.977368
0.975145
0.972618
0.969747
0.966463
0.962703
0.95836
0.953292
0.947289
0.940012
0.93085
0.918543
0.899816
0.861099
0.701407
0.979128
0.99085
0.991977
0.992401
0.992729
0.993147
0.993866
0.994983
0.996503
0.998317
0.999991
1
1
1
0.998116
0.993984
0.988265
0.981771
0.975147
0.968855
0.963215
0.958476
0.954852
0.952485
0.951389
0.951018
0.95165
0.953076
0.955077
0.957445
0.960013
0.962648
0.965264
0.967801
0.970221
0.972503
0.974629
0.976604
0.97842
0.980087
0.981611
0.983001
0.984261
0.985403
0.986433
0.987367
0.988209
0.988966
0.989646
0.990255
0.990802
0.991292
0.99173
0.99212
0.992468
0.992777
0.993051
0.993294
0.993507
0.993696
0.993859
0.994002
0.994126
0.994234
0.994324
0.9944
0.994463
0.994517
0.994558
0.994589
0.994613
0.994627
0.994636
0.994636
0.994629
0.994619
0.994602
0.99458
0.994552
0.994523
0.994488
0.994448
0.994405
0.994361
0.99431
0.994257
0.9942
0.994138
0.994071
0.994001
0.993925
0.993846
0.993763
0.993671
0.993575
0.993471
0.993362
0.993244
0.993119
0.992983
0.992837
0.99268
0.992509
0.992322
0.992118
0.991898
0.991656
0.99139
0.991095
0.990772
0.990411
0.990012
0.989567
0.989071
0.988518
0.987899
0.987208
0.98643
0.985555
0.984579
0.983478
0.982241
0.980848
0.979285
0.977523
0.975536
0.9733
0.970767
0.967901
0.964641
0.960916
0.956618
0.951621
0.94571
0.938545
0.929524
0.917396
0.89888
0.860445
0.701125
0.98055
0.990924
0.991869
0.992189
0.992453
0.992821
0.993543
0.99473
0.996375
0.998326
1
0.999999
0.999998
0.999999
0.997504
0.992226
0.985171
0.977384
0.969599
0.962295
0.95578
0.950309
0.946171
0.94364
0.942738
0.942694
0.943897
0.946031
0.948777
0.951853
0.95505
0.958225
0.961292
0.964201
0.966934
0.969471
0.971821
0.973981
0.975961
0.977771
0.979421
0.980923
0.982286
0.983521
0.984637
0.98565
0.986561
0.987381
0.988122
0.98879
0.989386
0.989924
0.990406
0.990837
0.991221
0.991565
0.991872
0.992145
0.992388
0.9926
0.992788
0.99295
0.993094
0.993219
0.993323
0.993416
0.99349
0.993554
0.993605
0.993643
0.993673
0.993691
0.993705
0.993708
0.993705
0.993694
0.993675
0.993655
0.993625
0.993593
0.993553
0.993513
0.993464
0.993413
0.993357
0.993297
0.993231
0.99316
0.993086
0.993008
0.992923
0.992831
0.992735
0.992633
0.992523
0.992407
0.992282
0.99215
0.992007
0.991853
0.99169
0.99151
0.991318
0.991111
0.990883
0.990636
0.990368
0.990069
0.989747
0.989389
0.988994
0.988559
0.988076
0.987542
0.986947
0.986288
0.985552
0.984733
0.983819
0.982799
0.981659
0.980387
0.97896
0.977368
0.975584
0.973581
0.971336
0.968807
0.965951
0.962713
0.959018
0.954776
0.949847
0.944024
0.936973
0.928093
0.916128
0.897818
0.8596
0.700394
0.981586
0.990933
0.991707
0.991918
0.992097
0.992406
0.993123
0.99438
0.996168
0.998293
1
1
0.999998
0.999997
0.996768
0.990144
0.981605
0.972449
0.963478
0.955149
0.947708
0.941388
0.936591
0.933912
0.932831
0.933548
0.935906
0.939257
0.943074
0.947008
0.95086
0.954539
0.957985
0.961186
0.964146
0.966868
0.969365
0.971653
0.973742
0.975647
0.977383
0.97896
0.980391
0.981688
0.982868
0.983933
0.984894
0.985767
0.986552
0.98726
0.987898
0.988472
0.988988
0.989452
0.989869
0.990238
0.99057
0.990866
0.991131
0.991364
0.991569
0.99175
0.991908
0.992046
0.992165
0.992267
0.99235
0.99242
0.992479
0.992523
0.992558
0.99258
0.992593
0.992597
0.992594
0.992583
0.992563
0.992539
0.992507
0.99247
0.992426
0.992376
0.992323
0.992263
0.9922
0.992132
0.992057
0.991978
0.991893
0.991802
0.991706
0.991604
0.991495
0.991379
0.991255
0.991123
0.990985
0.990834
0.990673
0.990503
0.990318
0.990121
0.989905
0.989675
0.989423
0.989153
0.988855
0.98853
0.988178
0.987789
0.987364
0.986893
0.986376
0.985807
0.985177
0.984481
0.983707
0.982852
0.981904
0.98085
0.979675
0.978375
0.976925
0.97531
0.973509
0.971498
0.969249
0.966724
0.963882
0.96067
0.957017
0.952828
0.947966
0.942235
0.935299
0.926561
0.914762
0.896648
0.858596
0.699287
0.982299
0.99088
0.991498
0.991564
0.991622
0.991894
0.9926
0.993924
0.995871
0.998212
0.999997
0.999997
0.999998
0.999996
0.9959
0.987718
0.977566
0.967018
0.956899
0.947595
0.939208
0.931872
0.926063
0.923117
0.922152
0.924586
0.928995
0.934042
0.939029
0.943706
0.948026
0.952002
0.955648
0.958987
0.962043
0.964836
0.967387
0.969719
0.971846
0.973782
0.975549
0.977161
0.978622
0.979949
0.981153
0.98225
0.983242
0.984139
0.98495
0.985684
0.986347
0.986945
0.987484
0.987969
0.988405
0.988796
0.989146
0.989457
0.989737
0.989985
0.990203
0.990394
0.990564
0.990711
0.990835
0.990945
0.991035
0.991109
0.991171
0.991216
0.991251
0.991275
0.991286
0.991289
0.991283
0.99127
0.991245
0.991214
0.991178
0.991133
0.991084
0.991025
0.990963
0.990895
0.990823
0.990744
0.990658
0.990567
0.990472
0.990368
0.990258
0.990143
0.990019
0.989889
0.989751
0.989605
0.989447
0.98928
0.989102
0.988911
0.988708
0.988489
0.988253
0.988001
0.987725
0.98743
0.987107
0.986755
0.986374
0.985957
0.985503
0.985002
0.984455
0.983854
0.983191
0.982462
0.981658
0.980772
0.97979
0.978711
0.977513
0.976187
0.974718
0.973089
0.971278
0.969263
0.967013
0.964501
0.961681
0.958501
0.954892
0.950763
0.945981
0.940342
0.93353
0.924939
0.913314
0.895386
0.857465
0.697856
0.982726
0.990776
0.991243
0.991143
0.991041
0.991284
0.99196
0.99335
0.99547
0.998077
1
1
0.999998
1
0.994889
0.984928
0.973068
0.96119
0.950068
0.939969
0.930741
0.922256
0.914668
0.908797
0.911198
0.91937
0.926741
0.93243
0.937651
0.94247
0.946917
0.950861
0.954458
0.95773
0.96072
0.963456
0.965955
0.968238
0.970326
0.97223
0.973973
0.975559
0.977011
0.978325
0.979525
0.980615
0.98161
0.982512
0.983329
0.984072
0.98474
0.985346
0.985894
0.986389
0.986834
0.987234
0.987591
0.987914
0.988198
0.988453
0.988678
0.988876
0.989048
0.989197
0.989328
0.989436
0.989528
0.989603
0.989663
0.989708
0.989742
0.989761
0.989769
0.989767
0.989756
0.989733
0.989703
0.989666
0.98962
0.989567
0.989508
0.989439
0.989367
0.989287
0.989203