/*--------------------------------*- C++ -*----------------------------------*\
  =========                 |
  \\      /  F ield         | OpenFOAM: The Open Source CFD Toolbox
   \\    /   O peration     | Website:  https://openfoam.org
    \\  /    A nd           | Version:  13
     \\/     M anipulation  |
\*---------------------------------------------------------------------------*/
FoamFile
{
    format      ascii;
    class       volScalarField;
    location    "209.831886";
    object      T;
}
// * * * * * * * * * * * * * * * * * * * * * * * * * * * * * * * * * * * * * //

dimensions      [0 0 0 1 0 0 0];

internalField   nonuniform List<scalar> 
5712
(
1116.3
1116.21
1116.06
1115.93
1115.7
1115.56
1115.19
1115.08
1115.28
1115.15
1115.68
1115.55
1115.97
1115.85
1116.19
1116.09
1115.6
1115.42
1115.36
1115.12
1114.97
1114.75
1114.76
1114.48
1116.63
1117.16
1116.53
1117.03
1116.4
1116.91
1116.26
1116.74
1115.9
1116.17
1115.65
1116
1116.61
1116.32
1115.07
1114.64
1114.84
1114.52
1114.51
1114.15
1114.23
1113.96
1115.61
1115.16
1115.35
1115.01
1116.03
1115.59
1117.77
1118.12
1117.51
1117.88
1117.52
1117.97
1117.22
1117.63
1117.16
1117.77
1116.71
1117.27
1116.36
1116.92
1115.97
1116.54
1115.48
1115.4
1115.1
1115.07
1114.65
1114.55
1114.36
1114.26
1115.82
1115.94
1116.26
1116.29
1114.79
1114.8
1114.5
1114.57
1114.1
1114.01
1113.85
1113.8
1115.46
1115.64
1115.14
1115.4
1116.52
1117.2
1116.79
1117.56
1117
1117.7
1117.17
1117.97
1116.12
1116.78
1116.49
1117.24
1115.78
1116.42
1116.24
1116.98
1118.62
1119.41
1118.75
1119.54
1118.39
1119.12
1118.63
1119.38
1118
1118.56
1118.42
1119.03
1116.01
1115.03
1116.9
1117.57
1118.29
1115.16
1116.2
1117.25
1117.97
1118.75
1114.92
1115.85
1116.74
1117.58
1118.41
1120.14
1120.49
1120.55
1120.86
1119.77
1120.17
1120.31
1120.64
1119.13
1119.58
1119.88
1120.28
1115.38
1115.73
1116.51
1116.99
1117.55
1118.06
1118.38
1118.89
1119.49
1120
1115.08
1115.36
1116.11
1116.62
1117.08
1117.67
1118.05
1118.69
1119.27
1119.94
1115.66
1116.23
1115.24
1115.75
1114.64
1114.8
1114.28
1114.35
1116.27
1116.96
1116.67
1117.4
1114.89
1115.4
1114.66
1115.15
1113.98
1114.05
1113.77
1113.82
1115.9
1116.6
1115.67
1116.36
1117.44
1118.28
1118.88
1119.91
1117.76
1118.64
1119.1
1120.1
1117.14
1117.95
1118.68
1119.69
1116.85
1117.67
1118.38
1119.33
1120.57
1120.7
1120.98
1120.65
1120.69
1120.93
1120.34
1120.5
1120.79
1120.48
1120.52
1120.79
1119.85
1120.08
1120.41
1120.21
1120.3
1120.6
1116.16
1116.66
1117.19
1117.51
1117.94
1118.41
1118.53
1118.9
1119.31
1119.27
1119.57
1119.96
1119.99
1120.13
1120.48
1115.76
1116.32
1116.92
1117.3
1117.88
1118.47
1118.35
1118.86
1119.39
1119.21
1119.57
1120.04
1119.99
1120.17
1120.58
1113.86
1113.69
1113.71
1113.48
1114.37
1114.14
1114.18
1113.91
1113.74
1113.35
1113.7
1113.34
1113.64
1113.29
1113.56
1113.24
1113.31
1113.46
1113.22
1113.4
1113.23
1113.11
1113.3
1113.09
1113.69
1113.46
1113.21
1113.02
1113.08
1112.89
1113.04
1112.85
1112.96
1112.62
1113.03
1112.7
1112.92
1112.56
1112.94
1112.6
1112.88
1112.49
1112.8
1112.44
1112.74
1112.42
1112.58
1112.31
1113.44
1113.28
1113.24
1113.06
1113.97
1113.83
1113.73
1113.58
1112.89
1112.68
1113.07
1112.87
1113.04
1112.86
1112.84
1112.69
1113.5
1113.36
1113.28
1113.17
1112.72
1112.51
1112.54
1112.36
1112.6
1112.29
1112.43
1112.23
1112.74
1112.41
1112.6
1112.37
1112.46
1112.18
1112.28
1112.11
1112.31
1112.07
1112.15
1112
1112.96
1113.12
1112.65
1112.81
1112.96
1113.13
1112.63
1112.8
1112.96
1113.11
1112.59
1112.75
1113.58
1114.2
1113.19
1112.88
1112.55
1114.32
1113.71
1113.34
1113.03
1112.69
1114.09
1113.49
1113.05
1112.76
1112.52
1113.39
1113.77
1113.09
1113.46
1113.38
1113.74
1113.05
1113.41
1113.33
1113.67
1112.97
1113.3
1114.47
1114.76
1113.82
1114.12
1113.45
1113.75
1113.16
1113.47
1112.84
1113.15
1114.18
1114.35
1113.57
1113.73
1113.14
1113.35
1112.87
1113.12
1112.66
1112.98
1113.24
1113.28
1113.01
1112.99
1113.8
1113.83
1113.52
1113.47
1112.67
1112.74
1112.87
1112.99
1112.83
1112.76
1112.66
1112.57
1113.31
1113.2
1113.12
1112.99
1112.52
1112.54
1112.37
1112.37
1112.46
1112.62
1112.36
1112.61
1112.64
1112.84
1112.5
1112.79
1112.32
1112.43
1112.24
1112.45
1112.19
1112.29
1112.13
1112.32
1114.29
1114.81
1115.3
1114.11
1114.69
1115.18
1114.23
1114.75
1115.25
1114.02
1114.61
1115.12
1114.13
1114.64
1115.15
1113.89
1114.51
1115.05
1115.16
1115.65
1116.19
1114.52
1115.04
1115.58
1114.16
1114.7
1115.26
1113.91
1114.45
1114.99
1113.74
1114.39
1114.98
1114.66
1115.19
1115.8
1114.06
1114.6
1115.22
1113.72
1114.3
1114.93
1113.57
1114.18
1114.82
1113.6
1114.28
1114.93
1112.46
1112.66
1113.24
1114.31
1112.56
1112.78
1113.37
1114.45
1112.42
1112.63
1113.21
1114.29
1112.48
1112.72
1113.32
1114.4
1112.36
1112.59
1113.14
1114.19
1112.34
1112.6
1113.18
1114.26
1112.36
1112.64
1113.28
1114.38
1112.3
1112.62
1113.28
1114.39
1112.24
1112.51
1113.08
1114.15
1112.25
1112.55
1113.07
1114.03
1112.33
1112.57
1113.09
1114.08
1112.36
1112.62
1113.11
1114.01
1112.16
1112.46
1113.08
1114.19
1112.17
1112.49
1113.04
1114.02
1112.09
1112.42
1113.06
1114.16
1112.09
1112.43
1113.01
1113.98
1112.48
1112.66
1113.18
1114.19
1112.61
1112.76
1113.2
1114.08
1112.46
1112.65
1113.16
1114.17
1112.61
1112.76
1113.2
1114.08
1112.45
1112.65
1113.14
1114.12
1112.58
1112.75
1113.19
1114.06
1112.44
1112.66
1113.13
1114.05
1112.55
1112.75
1113.18
1114.02
1112.46
1112.69
1113.14
1113.98
1112.82
1112.94
1113.34
1113.97
1113.05
1113.16
1113.57
1114.15
1112.79
1112.93
1113.33
1113.95
1113.03
1113.15
1113.56
1114.15
1112.75
1112.9
1113.31
1113.94
1112.98
1113.12
1113.55
1114.14
1112.68
1112.87
1113.29
1113.92
1112.92
1113.09
1113.53
1114.12
1112.59
1112.82
1113.25
1113.89
1112.84
1113.05
1113.51
1114.11
1112.42
1112.72
1113.21
1113.87
1112.65
1112.94
1113.44
1114.06
1112.51
1112.77
1113.23
1113.88
1112.75
1113
1113.47
1114.08
1112.35
1112.68
1113.18
1113.86
1112.56
1112.89
1113.4
1114.04
1112.28
1112.63
1113.15
1113.84
1112.48
1112.84
1113.37
1114.01
1115.96
1117.3
1118.44
1119.37
1120.1
1116.04
1117.37
1118.51
1119.44
1120.16
1115.95
1117.29
1118.44
1119.37
1120.1
1116.03
1117.36
1118.5
1119.43
1120.16
1115.93
1117.28
1118.43
1119.37
1120.09
1115.97
1117.3
1118.45
1119.39
1120.11
1116
1117.34
1118.49
1119.42
1120.15
1115.98
1117.33
1118.48
1119.41
1120.14
1115.92
1117.28
1118.43
1119.36
1120.09
1115.99
1117.38
1118.53
1119.47
1120.19
1115.94
1117.3
1118.45
1119.39
1120.11
1116.01
1117.4
1118.55
1119.49
1120.21
1115.92
1117.28
1118.43
1119.37
1120.09
1116
1117.39
1118.54
1119.48
1120.21
1115.9
1117.26
1118.42
1119.36
1120.09
1115.99
1117.39
1118.55
1119.49
1120.21
1115.97
1117.33
1118.47
1119.41
1120.13
1116.07
1117.45
1118.59
1119.53
1120.25
1115.97
1117.33
1118.48
1119.41
1120.14
1116.07
1117.45
1118.6
1119.53
1120.25
1115.97
1117.34
1118.49
1119.43
1120.15
1116.07
1117.45
1118.6
1119.54
1120.26
1116
1117.38
1118.54
1119.47
1120.2
1116.09
1117.47
1118.63
1119.56
1120.28
1116.06
1117.45
1118.6
1119.54
1120.26
1122.26
1122.49
1122.16
1122.4
1121.98
1122.24
1121.75
1122.05
1121.53
1121.87
1121.17
1121.58
1121.35
1121.75
1120.99
1121.39
1120.81
1121.16
1124.82
1127.64
1130.01
1131.87
1133.15
1124.78
1127.61
1130.02
1131.89
1133.18
1124.78
1127.61
1130
1131.86
1133.14
1124.74
1127.6
1130
1131.88
1133.18
1124.69
1127.56
1129.97
1131.84
1133.11
1124.65
1127.55
1129.97
1131.86
1133.16
1124.57
1127.49
1129.92
1131.8
1133.08
1124.54
1127.48
1129.93
1131.83
1133.13
1124.43
1127.4
1129.85
1131.75
1133.04
1124.42
1127.4
1129.87
1131.78
1133.09
1124.12
1127.17
1129.68
1131.61
1132.92
1124.15
1127.2
1129.72
1131.66
1132.98
1124.27
1127.29
1129.77
1131.69
1132.98
1124.29
1127.31
1129.8
1131.73
1133.04
1123.97
1127.05
1129.59
1131.53
1132.85
1123.99
1127.07
1129.62
1131.58
1132.9
1123.81
1126.93
1129.49
1131.45
1132.77
1123.81
1126.94
1129.51
1131.48
1132.82
1113.34
1113.7
1113.99
1113.58
1114.06
1114
1113.99
1113.92
1114.12
1114.02
1114.59
1114.48
1114.83
1114.7
1114.47
1114.37
1114.33
1114.26
1114.3
1114.24
1113.58
1113.47
1114.4
1114.78
1114.92
1114.95
1114.59
1114.53
1115
1114.42
1115.4
1116
1114.49
1114.69
1115.15
1114.61
1114.82
1114.85
1114.14
1114.06
1114.29
1114.19
1114.09
1113.98
1114.08
1114.22
1114.74
1114.64
1114.47
1114.36
1113.74
1113.58
1113.82
1113.68
1113.82
1113.88
1114.11
1114.45
1114.11
1112.95
1112.62
1112.47
1112.48
1112.64
1113
1112.73
1112.61
1112.64
1112.86
1114.09
1113.95
1113.93
1114.05
1114.31
1114.49
1114.36
1114.36
1114.49
1114.75
1114.62
1114.49
1114.48
1114.6
1114.87
1114.66
1114.53
1114.53
1114.65
1114.92
1114.29
1114.15
1114.14
1114.26
1114.53
1113.84
1113.42
1113.19
1113.14
1113.25
1114.26
1113.81
1113.57
1113.51
1113.65
1113.93
1113.62
1113.45
1113.45
1113.64
1114.71
1114.28
1114.06
1114.02
1114.19
1115.34
1114.89
1114.66
1114.63
1114.8
1114.11
1113.89
1113.8
1113.86
1114.09
1114.24
1113.96
1113.81
1113.83
1114.04
1114.72
1114.45
1114.31
1114.34
1114.55
1114.25
1114.06
1113.99
1114.07
1114.31
1114.45
1114.23
1114.14
1114.2
1114.43
1114.5
1114.31
1114.25
1114.33
1114.57
1113.5
1113.14
1112.96
1112.93
1113.07
1113.64
1113.37
1113.25
1113.28
1113.49
1113.93
1113.73
1113.66
1113.73
1113.97
1113.85
1113.67
1113.61
1113.7
1113.94
1113.72
1113.51
1113.42
1113.49
1113.72
1113.63
1113.44
1113.38
1113.46
1113.7
1113.75
1113.59
1113.55
1113.66
1113.91
1113.9
1113.74
1113.71
1113.81
1114.06
1114.43
1114.27
1114.23
1114.34
1114.59
1114.33
1114.18
1114.16
1114.27
1114.53
1114.13
1113.95
1113.9
1113.99
1114.24
1114.04
1113.87
1113.83
1113.93
1114.19
1113.13
1112.79
1112.63
1112.63
1112.78
1113.15
1112.89
1112.78
1112.82
1113.04
1113.32
1113.02
1112.87
1112.87
1113.05
1113.3
1113.08
1112.99
1113.05
1113.28
1113.46
1113.26
1113.19
1113.27
1113.5
1113.47
1113.21
1113.09
1113.13
1113.35
1113.79
1113.62
1113.58
1113.68
1113.93
1114.14
1113.99
1113.97
1114.08
1114.34
1113.78
1113.6
1113.55
1113.64
1113.89
1113.63
1113.81
1113.64
1113.85
1113.16
1113.37
1113.15
1113.34
1113.66
1113.68
1113.86
1113.82
1113.16
1113.17
1113.36
1113.3
1114.12
1114.6
1114.28
1114.74
1114.12
1114.56
1114.32
1114.74
1114.33
1114.15
1114.23
1114.11
1114.49
1114.66
1114.1
1114.3
1114.01
1114.23
1113.62
1113.83
1113.49
1113.7
1114.56
1114.78
1114.42
1114.68
1114.91
1115.18
1115.04
1115.41
1115.16
1115.51
1115.01
1115.46
1115.17
1115.56
1114.93
1115.54
1115.04
1115.58
1115.27
1115.82
1115.58
1116.14
1113.83
1113.95
1113.93
1114.07
1113.21
1113.25
1113.31
1113.35
1114.51
1114.87
1114.43
1114.75
1114.08
1114.2
1114.27
1114.37
1113.46
1113.47
1113.64
1113.62
1114.67
1115.01
1114.88
1115.19
1115.12
1115.8
1115.7
1116.47
1115.07
1115.8
1115.6
1116.42
1115.27
1115.91
1115.84
1116.59
1115.49
1116.13
1116.03
1116.77
1115.08
1115.31
1115.5
1115.87
1115.05
1115.24
1115.56
1115.91
1114.98
1115.08
1115.68
1115.97
1113.81
1113.17
1114.44
1115.11
1115.95
1113.15
1113.76
1114.39
1115.09
1116.1
1113.2
1113.89
1114.68
1115.54
1116.43
1115.68
1115.84
1116.82
1117.14
1115.51
1115.67
1116.75
1117.07
1115.25
1115.38
1116.66
1116.99
1113.16
1113.24
1113.81
1113.91
1114.49
1114.59
1115.31
1115.44
1116.77
1117.12
1113.2
1113.28
1113.96
1114.17
1114.82
1115.09
1115.81
1116.15
1117.16
1117.59
1114.13
1114.5
1114.23
1114.61
1113.27
1113.29
1113.35
1113.34
1115.2
1115.76
1115.08
1115.61
1114.31
1114.75
1114.47
1114.94
1113.44
1113.46
1113.59
1113.63
1115.28
1115.91
1115.47
1116.14
1116.36
1117.09
1117.84
1118.78
1116.17
1116.88
1117.58
1118.45
1116.51
1117.26
1118.07
1119.03
1116.64
1117.45
1118.18
1119.13
1115.89
1116.02
1116.9
1116.91
1115.72
1115.87
1116.86
1116.85
1115.48
1115.69
1116.81
1116.81
1113.41
1113.72
1114.1
1114.39
1114.75
1115
1115.57
1115.8
1116.89
1116.86
1113.45
1113.78
1114.46
1114.76
1115.34
1115.56
1116.23
1116.32
1117.15
1117.05
1112.37
1112.36
1112.56
1112.48
1112.73
1112.71
1112.93
1112.84
1112.12
1111.94
1112.3
1112.11
1112.13
1111.96
1112.32
1112.14
1112.29
1112.12
1112.27
1112.14
1112
1112.15
1112.66
1112.87
1113.02
1113.22
1112.52
1112.76
1112.45
1112.66
1112.38
1112.6
1111.82
1111.74
1111.99
1111.9
1111.83
1111.72
1112
1111.88
1111.85
1111.71
1111.98
1111.82
1112.18
1112
1112.37
1112.15
1112.29
1112.27
1112.38
1112.34
1112.69
1112.68
1112.79
1112.76
1112.11
1112.05
1112.03
1112
1112.51
1112.43
1112.67
1112.55
1112.93
1112.87
1113.09
1113
1112.23
1112.13
1112.38
1112.23
1111.91
1111.75
1111.87
1111.79
1111.84
1111.71
1111.84
1111.76
1112.02
1111.84
1111.94
1111.84
1112.16
1111.95
1112.03
1111.91
1111.75
1111.78
1111.68
1111.73
1111.77
1111.8
1111.68
1111.73
1111.81
1111.83
1111.69
1111.74
1112.26
1112.65
1112
1111.82
1111.72
1112.65
1112.28
1112.02
1111.85
1111.75
1112.64
1112.25
1111.98
1111.83
1111.76
1111.9
1112.12
1111.87
1112.11
1111.91
1112.1
1111.86
1112.09
1111.91
1112.09
1111.85
1112.05
1112.65
1112.73
1112.28
1112.38
1112.05
1112.17
1111.89
1112.04
1111.83
1112.02
1112.61
1112.64
1112.23
1112.27
1111.99
1112.07
1111.86
1111.99
1111.83
1112.02
1112.21
1112.18
1112.28
1112.21
1112.61
1112.55
1112.7
1112.59
1112.03
1112.04
1111.98
1112.02
1112.4
1112.3
1112.52
1112.42
1112.83
1112.68
1112.96
1112.82
1112.13
1112.12
1112.24
1112.23
1111.9
1112
1111.9
1112.07
1111.86
1111.98
1111.86
1112.04
1111.98
1112.06
1111.96
1112.13
1112.08
1112.16
1112.04
1112.21
1112.38
1112.62
1112.44
1112.73
1112.35
1112.6
1112.41
1112.72
1112.32
1112.6
1112.37
1112.72
1112.9
1113.21
1112.57
1112.89
1112.38
1112.7
1112.27
1112.6
1112.34
1112.75
1112.77
1113.13
1112.43
1112.81
1112.27
1112.67
1112.25
1112.66
1112.38
1112.84
1111.85
1112.25
1112.96
1114.12
1112
1112.4
1113.11
1114.28
1111.84
1112.24
1112.94
1114.12
1111.98
1112.38
1113.08
1114.25
1111.83
1112.23
1112.9
1114.03
1111.92
1112.31
1112.99
1114.13
1112.08
1112.45
1113.14
1114.29
1112.2
1112.55
1113.23
1114.35
1111.87
1112.26
1112.91
1114.03
1111.94
1112.33
1112.92
1113.92
1111.85
1112.25
1112.86
1113.92
1111.93
1112.33
1112.9
1113.86
1111.93
1112.31
1112.97
1114.11
1111.97
1112.35
1112.95
1113.95
1112.01
1112.36
1113.02
1114.13
1112.02
1112.39
1112.97
1113.96
1111.8
1112.21
1112.87
1113.98
1111.87
1112.27
1112.87
1113.85
1111.81
1112.21
1112.87
1113.97
1111.89
1112.28
1112.88
1113.85
1111.83
1112.23
1112.86
1113.93
1111.9
1112.3
1112.89
1113.85
1111.88
1112.28
1112.87
1113.88
1111.93
1112.33
1112.9
1113.83
1111.94
1112.34
1112.9
1113.82
1112.03
1112.43
1112.99
1113.7
1112.24
1112.63
1113.2
1113.87
1112.03
1112.43
1112.99
1113.7
1112.24
1112.63
1113.21
1113.87
1112.03
1112.43
1112.99
1113.7
1112.24
1112.64
1113.21
1113.87
1112.03
1112.44
1112.99
1113.7
1112.24
1112.65
1113.22
1113.88
1112.04
1112.45
1113
1113.7
1112.25
1112.66
1113.23
1113.89
1112.1
1112.51
1113.05
1113.75
1112.29
1112.7
1113.27
1113.92
1112.07
1112.47
1113.02
1113.72
1112.26
1112.68
1113.25
1113.9
1112.15
1112.55
1113.09
1113.78
1112.34
1112.74
1113.3
1113.95
1112.21
1112.59
1113.12
1113.81
1112.41
1112.79
1113.34
1113.98
1115.85
1117.23
1118.4
1119.34
1120.07
1115.94
1117.3
1118.46
1119.41
1120.14
1115.85
1117.23
1118.4
1119.34
1120.07
1115.94
1117.3
1118.46
1119.41
1120.14
1115.84
1117.23
1118.4
1119.34
1120.07
1115.89
1117.26
1118.42
1119.36
1120.09
1115.95
1117.31
1118.46
1119.41
1120.14
1115.96
1117.31
1118.47
1119.41
1120.14
1115.85
1117.23
1118.4
1119.35
1120.07
1115.93
1117.34
1118.51
1119.45
1120.18
1115.85
1117.25
1118.42
1119.37
1120.1
1115.94
1117.35
1118.52
1119.47
1120.2
1115.87
1117.25
1118.41
1119.35
1120.08
1115.96
1117.36
1118.53
1119.47
1120.2
1115.88
1117.25
1118.41
1119.35
1120.08
1115.98
1117.38
1118.54
1119.48
1120.21
1115.85
1117.26
1118.43
1119.38
1120.11
1115.95
1117.37
1118.55
1119.5
1120.23
1115.86
1117.26
1118.44
1119.38
1120.11
1115.95
1117.38
1118.55
1119.5
1120.23
1115.87
1117.28
1118.45
1119.4
1120.13
1115.96
1117.39
1118.56
1119.51
1120.24
1115.91
1117.33
1118.5
1119.45
1120.18
1115.99
1117.42
1118.59
1119.54
1120.27
1115.98
1117.4
1118.57
1119.52
1120.24
1119.23
1119.49
1119.26
1119.53
1119.34
1119.62
1119.48
1119.75
1119.69
1119.92
1120.23
1120.53
1119.99
1120.25
1120.44
1120.77
1120.62
1120.96
1122.6
1126.04
1128.81
1130.91
1132.3
1122.52
1126
1128.81
1130.92
1132.33
1122.63
1126.06
1128.83
1130.92
1132.31
1122.57
1126.03
1128.83
1130.94
1132.35
1122.7
1126.11
1128.86
1130.95
1132.33
1122.63
1126.07
1128.86
1130.97
1132.37
1122.8
1126.18
1128.91
1130.99
1132.37
1122.73
1126.14
1128.9
1131
1132.4
1122.95
1126.28
1128.99
1131.05
1132.42
1122.85
1126.22
1128.96
1131.05
1132.44
1123.31
1126.53
1129.18
1131.2
1132.55
1123.24
1126.49
1129.16
1131.2
1132.57
1123.13
1126.4
1129.08
1131.12
1132.48
1123.03
1126.34
1129.05
1131.12
1132.5
1123.48
1126.66
1129.28
1131.28
1132.62
1123.45
1126.64
1129.28
1131.29
1132.65
1123.65
1126.8
1129.38
1131.37
1132.7
1123.63
1126.79
1129.39
1131.39
1132.73
1113.07
1113.41
1113.18
1112.82
1112.38
1112.56
1112.38
1112.59
1112.73
1112.95
1112.73
1112.92
1116.22
1116.17
1116.03
1115.8
1115.5
1115.14
1116.25
1116.2
1116.06
1115.85
1115.58
1115.26
1116.37
1116.59
1116.31
1116.52
1116.15
1116.34
1115.9
1116.05
1115.56
1115.67
1115.16
1115.29
1114.75
1114.39
1114.08
1113.82
1113.64
1113.5
1114.91
1114.58
1114.28
1114.03
1113.84
1113.71
1115.95
1115.84
1115.86
1116.01
1116.28
1115.9
1115.79
1115.81
1115.95
1116.22
1115.75
1115.64
1115.66
1115.81
1116.08
1115.53
1115.42
1115.43
1115.57
1115.84
1115.22
1115.11
1115.12
1115.26
1115.53
1114.86
1114.73
1114.74
1114.87
1115.14
1115.98
1115.87
1115.89
1116.03
1116.3
1115.92
1115.82
1115.83
1115.98
1116.25
1115.79
1115.68
1115.69
1115.84
1116.11
1115.58
1115.46
1115.48
1115.62
1115.89
1115.3
1115.18
1115.19
1115.33
1115.6
1114.97
1114.85
1114.85
1114.99
1115.25
1116.1
1115.99
1116.01
1116.16
1116.43
1116.32
1116.22
1116.23
1116.38
1116.65
1116.04
1115.93
1115.95
1116.09
1116.36
1116.25
1116.14
1116.16
1116.3
1116.58
1115.88
1115.77
1115.78
1115.93
1116.2
1116.07
1115.96
1115.98
1116.12
1116.39
1115.62
1115.51
1115.52
1115.67
1115.94
1115.77
1115.66
1115.68
1115.82
1116.09
1115.28
1115.16
1115.17
1115.31
1115.58
1115.39
1115.28
1115.29
1115.43
1115.7
1114.88
1114.75
1114.76
1114.89
1115.16
1115
1114.88
1114.88
1115.02
1115.29
1114.46
1114.33
1114.32
1114.45
1114.72
1114.08
1113.94
1113.92
1114.04
1114.3
1113.75
1113.59
1113.56
1113.67
1113.92
1113.48
1113.29
1113.24
1113.33
1113.57
1113.26
1113.06
1112.98
1113.06
1113.29
1113.11
1112.89
1112.8
1112.87
1113.1
1114.62
1114.49
1114.48
1114.61
1114.88
1114.28
1114.14
1114.12
1114.24
1114.5
1113.97
1113.81
1113.78
1113.89
1114.15
1113.7
1113.53
1113.49
1113.59
1113.84
1113.5
1113.31
1113.26
1113.35
1113.59
1113.35
1113.16
1113.1
1113.19
1113.43
1116.19
1116.08
1115.88
1115.59
1115.23
1114.81
1116.22
1116.11
1115.91
1115.65
1115.31
1114.94
1116.34
1116.56
1116.22
1116.42
1115.99
1116.18
1115.68
1115.82
1115.27
1115.37
1114.8
1114.9
1114.36
1113.96
1113.64
1113.44
1113.37
1113.4
1114.55
1114.2
1113.91
1113.72
1113.63
1113.63
1115.92
1115.82
1115.83
1115.98
1116.25
1115.81
1115.7
1115.72
1115.86
1116.13
1115.6
1115.5
1115.51
1115.66
1115.93
1115.32
1115.21
1115.22
1115.37
1115.64
1114.95
1114.84
1114.85
1114.99
1115.27
1114.52
1114.4
1114.41
1114.55
1114.82
1115.95
1115.84
1115.86
1116
1116.28
1115.83
1115.73
1115.74
1115.89
1116.16
1115.64
1115.53
1115.55
1115.69
1115.96
1115.37
1115.26
1115.27
1115.42
1115.69
1115.03
1114.92
1114.93
1115.07
1115.35
1114.65
1114.54
1114.54
1114.68
1114.95
1116.07
1115.96
1115.98
1116.13
1116.4
1116.29
1116.18
1116.2
1116.35
1116.62
1115.94
1115.84
1115.85
1116
1116.27
1116.15
1116.04
1116.06
1116.21
1116.48
1115.72
1115.61
1115.63
1115.78
1116.05
1115.9
1115.8
1115.81
1115.96
1116.23
1115.4
1115.29
1115.31
1115.45
1115.72
1115.54
1115.43
1115.45
1115.59
1115.86
1114.99
1114.88
1114.89
1115.03
1115.31
1115.09
1114.98
1114.99
1115.14
1115.41
1114.52
1114.4
1114.41
1114.55
1114.82
1114.62
1114.5
1114.51
1114.65
1114.92
1114.07
1113.94
1113.95
1114.08
1114.35
1113.66
1113.52
1113.51
1113.64
1113.91
1113.33
1113.18
1113.15
1113.27
1113.53
1113.1
1112.93
1112.89
1112.99
1113.24
1113
1112.8
1112.74
1112.82
1113.07
1113.01
1112.8
1112.71
1112.78
1113.02
1114.26
1114.14
1114.14
1114.27
1114.54
1113.9
1113.77
1113.76
1113.89
1114.15
1113.6
1113.46
1113.44
1113.55
1113.82
1113.4
1113.23
1113.2
1113.31
1113.56
1113.29
1113.11
1113.06
1113.16
1113.41
1113.28
1113.09
1113.03
1113.12
1113.36
1113.41
1113.33
1113.9
1114.36
1114.39
1114.49
1114.08
1113.14
1113.27
1113.16
1113.57
1113.47
1113.42
1113.69
1113.75
1113.92
1113.1
1113.1
1113.41
1113.43
1113.24
1113.29
1113.53
1113.59
1114.01
1114
1113.67
1113.66
1113.25
1113.21
1113.08
1113.17
1113.21
1113.09
1113.5
1113.86
1113.42
1112.79
1112.48
1112.34
1112.36
1112.53
1112.88
1112.61
1112.5
1112.54
1112.76
1113.61
1113.47
1113.47
1113.6
1113.86
1114.07
1113.95
1113.95
1114.08
1114.36
1114.1
1113.97
1113.98
1114.11
1114.38
1114.21
1114.08
1114.09
1114.23
1114.5
1113.78
1113.65
1113.65
1113.78
1114.05
1112.59
1112.31
1112.19
1112.22
1112.39
1112.74
1112.47
1112.36
1112.4
1112.59
1112.77
1112.54
1112.45
1112.52
1112.75
1113.1
1112.85
1112.77
1112.83
1113.05
1113.14
1112.97
1112.93
1113.03
1113.28
1113.06
1112.86
1112.8
1112.88
1113.13
1113.37
1113.22
1113.19
1113.3
1113.56
1113.43
1113.27
1113.23
1113.34
1113.59
1113.61
1113.46
1113.43
1113.55
1113.81
1112.57
1112.29
1112.17
1112.2
1112.38
1112.72
1112.51
1112.44
1112.52
1112.76
1113.08
1112.92
1112.88
1112.99
1113.24
1113.11
1112.96
1112.93
1113.04
1113.3
1112.91
1112.73
1112.69
1112.78
1113.04
1112.96
1112.8
1112.76
1112.87
1113.12
1113.22
1113.07
1113.05
1113.17
1113.43
1113.29
1113.14
1113.13
1113.25
1113.51
1113.71
1113.57
1113.56
1113.68
1113.95
1113.71
1113.57
1113.57
1113.7
1113.96
1113.36
1113.21
1113.19
1113.3
1113.57
1113.35
1113.21
1113.19
1113.32
1113.58
1112.67
1112.37
1112.25
1112.27
1112.45
1112.8
1112.56
1112.47
1112.52
1112.75
1112.62
1112.37
1112.27
1112.31
1112.51
1112.81
1112.61
1112.54
1112.62
1112.87
1112.87
1112.69
1112.64
1112.74
1112.99
1112.71
1112.5
1112.42
1112.49
1112.73
1113.19
1113.04
1113.02
1113.13
1113.4
1113.56
1113.43
1113.42
1113.55
1113.81
1113.1
1112.95
1112.92
1113.04
1113.3
1113.56
1113.31
1113.21
1113.26
1113.43
1113.77
1113.57
1113.59
1113.09
1113.08
1113.61
1113.65
1113.1
1113.12
1114.08
1114.62
1114.09
1114.57
1114.14
1114.11
1114.48
1113.56
1113.58
1113.07
1113.06
1113.61
1113.64
1113.09
1113.12
1114.12
1114.68
1114.12
1114.62
1114.16
1114.12
1114.52
1113.57
1113.59
1113.07
1113.05
1113.62
1113.66
1113.09
1113.12
1114.14
1114.83
1114.15
1114.75
1114.19
1114.14
1114.63
1113.66
1113.69
1113.15
1113.14
1113.71
1113.76
1113.17
1113.2
1114.28
1115
1114.27
1114.91
1114.31
1114.25
1114.77
1113.83
1113.85
1113.32
1113.3
1113.87
1113.93
1113.34
1113.37
1114.45
1115.12
1114.44
1115.05
1114.46
1114.42
1114.91
1114.12
1114.14
1113.62
1113.61
1114.16
1114.2
1113.64
1113.66
1114.71
1115.33
1114.69
1115.26
1114.71
1114.67
1115.12
1112.31
1112.31
1112.66
1112.66
1112.31
1112.32
1112.66
1112.67
1112.06
1111.86
1112.07
1111.89
1112.07
1112.1
1111.95
1112.29
1112.29
1112.64
1112.63
1112.3
1112.31
1112.65
1112.66
1112.02
1111.86
1112.04
1111.9
1112.06
1112.1
1111.96
1112.28
1112.29
1112.63
1112.62
1112.31
1112.32
1112.65
1112.67
1112.04
1111.93
1112.06
1111.96
1112.09
1112.13
1112.02
1112.36
1112.37
1112.71
1112.7
1112.4
1112.42
1112.73
1112.75
1112.14
1112.08
1112.17
1112.11
1112.21
1112.26
1112.16
1112.54
1112.55
1112.88
1112.87
1112.58
1112.61
1112.9
1112.92
1112.34
1112.3
1112.37
1112.33
1112.41
1112.47
1112.37
1112.86
1112.87
1113.19
1113.18
1112.9
1112.93
1113.21
1113.23
1112.66
1112.59
1112.69
1112.62
1112.72
1112.77
1112.66
1116.32
1116.23
1116.07
1115.93
1115.7
1115.57
1115.19
1115.08
1115.28
1115.15
1115.68
1115.55
1115.97
1115.85
1116.2
1116.12
1115.6
1115.43
1115.37
1115.13
1114.98
1114.75
1114.76
1114.48
1116.64
1117.17
1116.55
1117.04
1116.41
1116.92
1116.26
1116.74
1115.9
1116.17
1115.65
1116
1116.61
1116.32
1115.07
1114.64
1114.84
1114.52
1114.51
1114.15
1114.23
1113.96
1115.61
1115.16
1115.35
1115.01
1116.03
1115.59
1117.78
1118.13
1117.53
1117.89
1117.52
1117.97
1117.22
1117.63
1117.16
1117.77
1116.71
1117.27
1116.36
1116.92
1115.97
1116.54
1115.48
1115.4
1115.11
1115.07
1114.65
1114.55
1114.36
1114.26
1115.82
1115.94
1116.27
1116.29
1114.79
1114.8
1114.51
1114.57
1114.1
1114.01
1113.85
1113.8
1115.46
1115.64
1115.14
1115.4
1116.52
1117.2
1116.79
1117.56
1117
1117.7
1117.17
1117.97
1116.12
1116.78
1116.49
1117.24
1115.78
1116.42
1116.25
1116.98
1118.63
1119.42
1118.76
1119.55
1118.39
1119.12
1118.63
1119.38
1118
1118.56
1118.42
1119.03
1116.01
1115.03
1116.9
1117.57
1118.29
1115.16
1116.2
1117.25
1117.97
1118.75
1114.92
1115.85
1116.74
1117.59
1118.41
1120.15
1120.5
1120.56
1120.87
1119.77
1120.17
1120.31
1120.64
1119.13
1119.58
1119.88
1120.28
1115.38
1115.73
1116.51
1116.99
1117.55
1118.06
1118.38
1118.89
1119.49
1120
1115.08
1115.36
1116.11
1116.62
1117.08
1117.67
1118.05
1118.69
1119.27
1119.94
1115.66
1116.23
1115.24
1115.75
1114.64
1114.8
1114.28
1114.35
1116.27
1116.96
1116.67
1117.4
1114.89
1115.4
1114.66
1115.15
1113.98
1114.05
1113.77
1113.82
1115.9
1116.6
1115.67
1116.36
1117.44
1118.28
1118.88
1119.91
1117.76
1118.64
1119.1
1120.1
1117.14
1117.95
1118.68
1119.69
1116.85
1117.67
1118.38
1119.33
1120.58
1120.71
1120.98
1120.66
1120.69
1120.94
1120.34
1120.5
1120.8
1120.48
1120.53
1120.79
1119.85
1120.08
1120.41
1120.21
1120.3
1120.6
1116.16
1116.66
1117.19
1117.51
1117.94
1118.41
1118.53
1118.9
1119.31
1119.27
1119.57
1119.96
1119.99
1120.13
1120.48
1115.76
1116.32
1116.92
1117.3
1117.88
1118.47
1118.35
1118.86
1119.39
1119.21
1119.57
1120.04
1119.99
1120.17
1120.58
1113.87
1113.69
1113.71
1113.48
1114.37
1114.14
1114.19
1113.91
1113.75
1113.36
1113.71
1113.34
1113.64
1113.29
1113.56
1113.24
1113.31
1113.46
1113.22
1113.4
1113.23
1113.11
1113.3
1113.09
1113.69
1113.46
1113.21
1113.02
1113.08
1112.89
1113.04
1112.85
1112.97
1112.62
1113.03
1112.71
1112.92
1112.56
1112.94
1112.6
1112.88
1112.49
1112.8
1112.44
1112.74
1112.42
1112.58
1112.31
1113.44
1113.28
1113.24
1113.06
1113.97
1113.83
1113.73
1113.58
1112.89
1112.68
1113.07
1112.87
1113.04
1112.87
1112.84
1112.69
1113.5
1113.36
1113.28
1113.17
1112.72
1112.51
1112.54
1112.36
1112.6
1112.29
1112.43
1112.23
1112.74
1112.41
1112.6
1112.37
1112.46
1112.18
1112.28
1112.11
1112.31
1112.07
1112.15
1112
1112.97
1113.12
1112.65
1112.81
1112.96
1113.13
1112.63
1112.8
1112.97
1113.11
1112.59
1112.75
1113.58
1114.2
1113.19
1112.88
1112.55
1114.32
1113.71
1113.34
1113.03
1112.69
1114.09
1113.49
1113.05
1112.76
1112.52
1113.39
1113.78
1113.09
1113.46
1113.38
1113.74
1113.05
1113.41
1113.33
1113.67
1112.97
1113.3
1114.48
1114.76
1113.82
1114.12
1113.45
1113.75
1113.16
1113.47
1112.84
1113.15
1114.18
1114.35
1113.57
1113.73
1113.15
1113.35
1112.87
1113.12
1112.66
1112.98
1113.24
1113.28
1113.01
1112.99
1113.8
1113.83
1113.52
1113.47
1112.67
1112.74
1112.87
1112.99
1112.83
1112.76
1112.66
1112.57
1113.31
1113.2
1113.12
1112.99
1112.52
1112.54
1112.37
1112.37
1112.46
1112.62
1112.36
1112.61
1112.64
1112.84
1112.5
1112.79
1112.32
1112.43
1112.24
1112.46
1112.19
1112.29
1112.13
1112.32
1114.3
1114.81
1115.3
1114.11
1114.69
1115.18
1114.23
1114.75
1115.25
1114.02
1114.61
1115.12
1114.13
1114.64
1115.15
1113.89
1114.51
1115.05
1115.16
1115.65
1116.19
1114.52
1115.04
1115.58
1114.16
1114.7
1115.26
1113.91
1114.45
1114.99
1113.74
1114.39
1114.98
1114.66
1115.19
1115.8
1114.06
1114.6
1115.22
1113.72
1114.31
1114.93
1113.57
1114.18
1114.82
1113.6
1114.28
1114.93
1112.46
1112.67
1113.24
1114.31
1112.56
1112.78
1113.37
1114.46
1112.42
1112.63
1113.21
1114.29
1112.48
1112.72
1113.31
1114.4
1112.36
1112.59
1113.14
1114.19
1112.34
1112.6
1113.18
1114.26
1112.36
1112.64
1113.28
1114.38
1112.3
1112.62
1113.28
1114.39
1112.24
1112.51
1113.08
1114.15
1112.26
1112.55
1113.07
1114.03
1112.33
1112.57
1113.09
1114.08
1112.36
1112.62
1113.11
1114.01
1112.16
1112.46
1113.08
1114.19
1112.17
1112.49
1113.04
1114.02
1112.09
1112.42
1113.06
1114.16
1112.09
1112.43
1113.01
1113.98
1112.48
1112.66
1113.18
1114.19
1112.61
1112.76
1113.2
1114.09
1112.46
1112.65
1113.16
1114.17
1112.61
1112.76
1113.2
1114.08
1112.45
1112.65
1113.14
1114.12
1112.58
1112.75
1113.19
1114.06
1112.44
1112.66
1113.13
1114.05
1112.55
1112.75
1113.18
1114.02
1112.46
1112.69
1113.14
1113.98
1112.82
1112.94
1113.34
1113.97
1113.05
1113.16
1113.56
1114.15
1112.79
1112.93
1113.33
1113.95
1113.03
1113.15
1113.56
1114.15
1112.75
1112.9
1113.31
1113.94
1112.98
1113.12
1113.55
1114.14
1112.68
1112.87
1113.29
1113.92
1112.92
1113.09
1113.53
1114.12
1112.59
1112.82
1113.25
1113.89
1112.84
1113.05
1113.51
1114.11
1112.42
1112.72
1113.21
1113.87
1112.65
1112.94
1113.44
1114.06
1112.51
1112.77
1113.23
1113.88
1112.75
1113
1113.47
1114.08
1112.35
1112.68
1113.18
1113.86
1112.56
1112.89
1113.4
1114.04
1112.28
1112.63
1113.15
1113.84
1112.48
1112.84
1113.37
1114.01
1115.96
1117.3
1118.44
1119.37
1120.1
1116.05
1117.37
1118.51
1119.44
1120.16
1115.95
1117.29
1118.44
1119.37
1120.09
1116.03
1117.36
1118.5
1119.43
1120.16
1115.93
1117.28
1118.43
1119.37
1120.09
1115.97
1117.3
1118.45
1119.38
1120.11
1116
1117.34
1118.49
1119.42
1120.15
1115.98
1117.32
1118.47
1119.41
1120.14
1115.92
1117.28
1118.43
1119.36
1120.09
1115.99
1117.38
1118.53
1119.47
1120.19
1115.94
1117.3
1118.45
1119.39
1120.11
1116.01
1117.4
1118.55
1119.49
1120.21
1115.92
1117.28
1118.43
1119.37
1120.09
1116
1117.39
1118.54
1119.48
1120.21
1115.9
1117.26
1118.42
1119.36
1120.09
1115.99
1117.39
1118.55
1119.49
1120.21
1115.97
1117.33
1118.47
1119.41
1120.13
1116.07
1117.45
1118.59
1119.53
1120.25
1115.97
1117.33
1118.48
1119.41
1120.14
1116.07
1117.45
1118.6
1119.53
1120.25
1115.97
1117.34
1118.49
1119.43
1120.15
1116.07
1117.45
1118.6
1119.54
1120.26
1116
1117.38
1118.54
1119.47
1120.2
1116.09
1117.47
1118.63
1119.56
1120.28
1116.06
1117.45
1118.6
1119.54
1120.26
1122.27
1122.5
1122.16
1122.4
1121.98
1122.24
1121.75
1122.05
1121.53
1121.87
1121.17
1121.58
1121.36
1121.75
1120.99
1121.39
1120.81
1121.16
1124.82
1127.64
1130.02
1131.87
1133.15
1124.78
1127.61
1130.02
1131.89
1133.18
1124.78
1127.61
1130
1131.86
1133.14
1124.74
1127.6
1130
1131.89
1133.18
1124.69
1127.56
1129.97
1131.84
1133.11
1124.65
1127.55
1129.97
1131.86
1133.16
1124.57
1127.49
1129.92
1131.8
1133.08
1124.54
1127.48
1129.93
1131.83
1133.13
1124.43
1127.4
1129.85
1131.75
1133.04
1124.42
1127.4
1129.87
1131.79
1133.09
1124.12
1127.17
1129.68
1131.61
1132.92
1124.15
1127.2
1129.72
1131.66
1132.98
1124.27