# Selection   : all
# Cells       : 5712
# Volume      : 1.562305e-05
# Time        	min(T)
0             	2.980000e+02
0.0132        	2.979852e+02
0.032208      	2.979991e+02
0.0595795     	2.980001e+02
0.0989945     	2.980025e+02
0.155752      	2.980145e+02
0.237483      	2.980622e+02
0.355176      	2.982097e+02
0.524653      	2.985731e+02
0.7687        	2.993601e+02
1.120128      	3.008713e+02
1.626184      	3.034260e+02
2.354905      	3.077231e+02
3.331886      	3.141660e+02
4.331886      	3.211419e+02
5.331886      	3.283817e+02
6.331886      	3.358623e+02
7.331886      	3.434644e+02
8.331886      	3.512013e+02
9.331886      	3.590236e+02
10.331886     	3.669211e+02
11.331886     	3.748692e+02
12.331886     	3.828477e+02
13.331886     	3.908356e+02
14.331886     	3.988192e+02
15.331886     	4.067909e+02
16.331886     	4.147408e+02
17.331886     	4.226605e+02
18.331886     	4.305429e+02
19.331886     	4.383824e+02
20.331886     	4.461742e+02
21.331886     	4.539141e+02
22.331886     	4.615989e+02
23.331886     	4.692260e+02
24.331886     	4.767931e+02
25.331886     	4.842898e+02
26.331886     	4.917073e+02
27.331886     	4.990621e+02
28.331886     	5.063533e+02
29.331886     	5.135802e+02
30.331886     	5.207423e+02
31.331886     	5.278393e+02
32.331886     	5.348708e+02
33.331886     	5.418370e+02
34.331886     	5.487376e+02
35.331886     	5.555729e+02
36.331886     	5.623430e+02
37.331886     	5.690480e+02
38.331886     	5.756883e+02
39.331886     	5.822642e+02
40.331886     	5.887759e+02
41.331886     	5.952239e+02
42.331886     	6.016085e+02
43.331886     	6.079302e+02
44.331886     	6.141894e+02
45.331886     	6.203867e+02
46.331886     	6.265223e+02
47.331886     	6.325969e+02
48.331886     	6.386109e+02
49.331886     	6.445649e+02
50.331886     	6.504592e+02
51.331886     	6.562945e+02
52.331886     	6.620712e+02
53.331886     	6.677899e+02
54.331886     	6.734511e+02
55.331886     	6.790553e+02
56.331886     	6.846030e+02
57.331886     	6.900947e+02
58.331886     	6.955310e+02
59.331886     	7.009124e+02
60.331886     	7.062393e+02
61.331886     	7.115123e+02
62.331886     	7.167320e+02
63.331886     	7.218988e+02
64.331886     	7.270132e+02
65.331886     	7.320757e+02
66.331886     	7.370869e+02
67.331886     	7.420473e+02
68.331886     	7.469572e+02
69.331886     	7.518173e+02
70.331886     	7.566280e+02
71.331886     	7.613898e+02
72.331886     	7.661032e+02
73.331886     	7.707686e+02
74.331886     	7.753866e+02
75.331886     	7.799576e+02
76.331886     	7.844820e+02
77.331886     	7.889604e+02
78.331886     	7.933932e+02
79.331886     	7.977808e+02
80.331886     	8.021237e+02
81.331886     	8.064224e+02
82.331886     	8.106773e+02
83.331886     	8.148888e+02
84.331886     	8.190573e+02
85.331886     	8.231834e+02
86.331886     	8.272674e+02
87.331886     	8.313097e+02
88.331886     	8.353108e+02
89.331886     	8.392711e+02
90.331886     	8.431910e+02
91.331886     	8.470710e+02
92.331886     	8.509113e+02
93.331886     	8.547124e+02
94.331886     	8.584748e+02
95.331886     	8.621987e+02
96.331886     	8.658846e+02
97.331886     	8.695330e+02
98.331886     	8.731440e+02
99.331886     	8.767182e+02
100.331886    	8.802560e+02
101.331886    	8.837576e+02
102.331886    	8.872234e+02
103.331886    	8.906539e+02
104.331886    	8.940493e+02
105.331886    	8.974101e+02
106.331886    	9.007365e+02
107.331886    	9.040290e+02
108.331886    	9.072879e+02
109.331886    	9.105135e+02
110.331886    	9.137061e+02
111.331886    	9.168661e+02
112.331886    	9.199939e+02
113.331886    	9.230897e+02
114.331886    	9.261539e+02
115.331886    	9.291867e+02
116.331886    	9.321886e+02
117.331886    	9.351599e+02
118.331886    	9.381008e+02
119.331886    	9.410116e+02
120.331886    	9.438928e+02
121.331886    	9.467445e+02
122.331886    	9.495670e+02
123.331886    	9.523607e+02
124.331886    	9.551259e+02
125.331886    	9.578629e+02
126.331886    	9.605718e+02
127.331886    	9.632531e+02
128.331886    	9.659070e+02
129.331886    	9.685338e+02
130.331886    	9.711338e+02
131.331886    	9.737072e+02
132.331886    	9.762543e+02
133.331886    	9.787754e+02
134.331886    	9.812707e+02
135.331886    	9.837406e+02
136.331886    	9.861852e+02
137.331886    	9.886048e+02
138.331886    	9.909997e+02
139.331886    	9.933701e+02
140.331886    	9.957163e+02
141.331886    	9.980386e+02
142.331886    	1.000337e+03
143.331886    	1.002612e+03
144.331886    	1.004864e+03
145.331886    	1.007093e+03
146.331886    	1.009299e+03
147.331886    	1.011482e+03
148.331886    	1.013643e+03
149.331886    	1.015782e+03
150.331886    	1.017900e+03
151.331886    	1.019995e+03
152.331886    	1.022070e+03
153.331886    	1.024123e+03
154.331886    	1.026155e+03
155.331886    	1.028166e+03
156.331886    	1.030156e+03
157.331886    	1.032127e+03
158.331886    	1.034077e+03
159.331886    	1.036007e+03
160.331886    	1.037918e+03
161.331886    	1.039809e+03
162.331886    	1.041681e+03
163.331886    	1.043533e+03
164.331886    	1.045367e+03
165.331886    	1.047182e+03
166.331886    	1.048979e+03
167.331886    	1.050757e+03
168.331886    	1.052516e+03
169.331886    	1.054258e+03
170.331886    	1.055982e+03
171.331886    	1.057689e+03
172.331886    	1.059378e+03
173.331886    	1.061050e+03
174.331886    	1.062705e+03
175.331886    	1.064342e+03
176.331886    	1.065963e+03
177.331886    	1.067568e+03
178.331886    	1.069156e+03
179.331886    	1.070728e+03
180.331886    	1.072284e+03
181.331886    	1.073824e+03
182.331886    	1.075348e+03
183.331886    	1.076857e+03
184.331886    	1.078350e+03
185.331886    	1.079828e+03
186.331886    	1.081291e+03
187.331886    	1.082739e+03
188.331886    	1.084172e+03
189.331886    	1.085590e+03
190.331886    	1.086994e+03
191.331886    	1.088384e+03
192.331886    	1.089759e+03
193.331886    	1.091121e+03
194.331886    	1.092468e+03
195.331886    	1.093802e+03
196.331886    	1.095122e+03
197.331886    	1.096428e+03
198.331886    	1.097722e+03
199.331886    	1.099002e+03
200.331886    	1.100269e+03
201.331886    	1.101523e+03
202.331886    	1.102764e+03
203.331886    	1.103992e+03
204.331886    	1.105208e+03
205.331886    	1.106412e+03
206.331886    	1.107603e+03
207.331886    	1.108782e+03
208.331886    	1.109949e+03
209.331886    	1.111104e+03
210.331886    	1.112248e+03
211.331886    	1.113379e+03
212.331886    	1.114499e+03
213.331886    	1.115608e+03
214.331886    	1.116705e+03
215.331886    	1.117791e+03
216.331886    	1.118866e+03
217.331886    	1.119930e+03
218.331886    	1.120983e+03
219.331886    	1.122026e+03
220.331886    	1.123057e+03
221.331886    	1.124079e+03
222.331886    	1.125089e+03
223.331886    	1.126090e+03
224.331886    	1.127080e+03
225.331886    	1.128060e+03
226.331886    	1.129030e+03
227.331886    	1.129990e+03
228.331886    	1.130940e+03
229.331886    	1.131881e+03
230.331886    	1.132812e+03
231.331886    	1.133734e+03
232.331886    	1.134646e+03
233.331886    	1.135548e+03
234.331886    	1.136442e+03
235.331886    	1.137326e+03
236.331886    	1.138202e+03
237.331886    	1.139068e+03
238.331886    	1.139926e+03
239.331886    	1.140774e+03
240.331886    	1.141615e+03
241.331886    	1.142446e+03
242.331886    	1.143269e+03
243.331886    	1.144084e+03
244.331886    	1.144890e+03
245.331886    	1.145688e+03
246.331886    	1.146478e+03
247.331886    	1.147260e+03
248.331886    	1.148034e+03
249.331886    	1.148800e+03
250.331886    	1.149558e+03
251.331886    	1.150308e+03
252.331886    	1.151051e+03
253.331886    	1.151786e+03
254.331886    	1.152514e+03
255.331886    	1.153234e+03
256.331886    	1.153947e+03
257.331886    	1.154653e+03
258.331886    	1.155351e+03
259.331886    	1.156042e+03
260.331886    	1.156726e+03
261.331886    	1.157403e+03
262.331886    	1.158074e+03
263.331886    	1.158737e+03
264.331886    	1.159394e+03
265.331886    	1.160043e+03
266.331886    	1.160687e+03
267.331886    	1.161323e+03
268.331886    	1.161954e+03
269.331886    	1.162577e+03
270.331886    	1.163195e+03
271.331886    	1.163806e+03
272.331886    	1.164411e+03
273.331886    	1.165009e+03
274.331886    	1.165602e+03
275.331886    	1.166188e+03
276.331886    	1.166769e+03
277.331886    	1.167343e+03
278.331886    	1.167912e+03
279.331886    	1.168475e+03
280.331886    	1.169032e+03
281.331886    	1.169583e+03
282.331886    	1.170129e+03
283.331886    	1.170669e+03
284.331886    	1.171204e+03
285.331886    	1.171733e+03
286.331886    	1.172257e+03
287.331886    	1.172775e+03
288.331886    	1.173289e+03
289.331886    	1.173797e+03
290.331886    	1.174299e+03
291.331886    	1.174797e+03
292.331886    	1.175289e+03
293.331886    	1.175777e+03
294.331886    	1.176259e+03
295.331886    	1.176737e+03
296.331886    	1.177210e+03
297.331886    	1.177678e+03
298.331886    	1.178141e+03
299.331886    	1.178599e+03
300.331886    	1.179053e+03
301.331886    	1.179502e+03
302.331886    	1.179946e+03
303.331886    	1.180386e+03
304.331886    	1.180821e+03
305.331886    	1.181252e+03
306.331886    	1.181679e+03
307.331886    	1.182101e+03
308.331886    	1.182519e+03
309.331886    	1.182933e+03
310.331886    	1.183342e+03
311.331886    	1.183747e+03
312.331886    	1.184148e+03
313.331886    	1.184545e+03
314.331886    	1.184938e+03
315.331886    	1.185327e+03
316.331886    	1.185712e+03
317.331886    	1.186093e+03
318.331886    	1.186470e+03
319.331886    	1.186843e+03
320.331886    	1.187213e+03
321.331886    	1.187578e+03
322.331886    	1.187940e+03
323.331886    	1.188299e+03
324.331886    	1.188653e+03
325.331886    	1.189004e+03
326.331886    	1.189351e+03
327.331886    	1.189695e+03
328.331886    	1.190035e+03
329.331886    	1.190372e+03
330.331886    	1.190706e+03
331.331886    	1.191036e+03
332.331886    	1.191362e+03
333.331886    	1.191686e+03
334.331886    	1.192005e+03
335.331886    	1.192322e+03
336.331886    	1.192636e+03
337.331886    	1.192946e+03
338.331886    	1.193253e+03
339.331886    	1.193557e+03
340.331886    	1.193858e+03
341.331886    	1.194155e+03
342.331886    	1.194450e+03
343.331886    	1.194742e+03
344.331886    	1.195031e+03
345.331886    	1.195316e+03
346.331886    	1.195599e+03
347.331886    	1.195879e+03
348.331886    	1.196156e+03
349.331886    	1.196431e+03
350.331886    	1.196702e+03
351.331886    	1.196971e+03
352.331886    	1.197237e+03
353.331886    	1.197500e+03
354.331886    	1.197761e+03
355.331886    	1.198018e+03
356.331886    	1.198274e+03
357.331886    	1.198526e+03
358.331886    	1.198776e+03
359.331886    	1.199024e+03
360.331886    	1.197691e+03
361.331886    	1.195921e+03
362.331886    	1.194432e+03
363.331886    	1.193002e+03
364.331886    	1.191651e+03
365.331886    	1.189926e+03
366.331886    	1.188206e+03
367.331886    	1.186504e+03
368.331886    	1.184855e+03
369.331886    	1.183260e+03
370.331886    	1.181714e+03
371.331886    	1.180215e+03
372.331886    	1.178758e+03
373.331886    	1.177341e+03
374.331886    	1.175961e+03
375.331886    	1.174615e+03
376.331886    	1.173300e+03
377.331886    	1.172014e+03
378.331886    	1.170755e+03
379.331886    	1.169521e+03
380.331886    	1.168310e+03
381.331886    	1.167120e+03
382.331886    	1.165950e+03
383.331886    	1.164799e+03
384.331886    	1.163665e+03
385.331886    	1.162546e+03
386.331886    	1.161443e+03
387.331886    	1.160353e+03
388.331886    	1.159277e+03
389.331886    	1.110337e+03
390.331886    	9.095262e+02
391.331886    	7.584316e+02
392.331886    	6.497884e+02
393.331886    	5.698353e+02
394.331886    	5.101989e+02
395.331886    	4.653609e+02
396.331886    	4.313705e+02
397.331886    	4.053854e+02
398.331886    	3.853598e+02
399.331886    	3.697866e+02
400.331886    	3.575589e+02
401.331886    	3.478610e+02
402.331886    	3.400900e+02
403.331886    	3.337983e+02
404.331886    	3.286521e+02
405.331886    	3.244013e+02
406.331886    	3.208573e+02
407.331886    	3.178770e+02
408.331886    	3.153510e+02
409.331886    	3.131948e+02
410.331886    	3.113427e+02
411.331886    	3.097431e+02
412.331886    	3.083549e+02
413.331886    	3.071453e+02
414.331886    	3.060877e+02
415.331886    	3.051602e+02
416.331886    	3.043448e+02
417.331886    	3.036265e+02
418.331886    	3.029925e+02
419.331886    	3.024323e+02
420.331886    	3.019366e+02
421.331886    	3.014976e+02
422.331886    	3.011084e+02
423.331886    	3.007632e+02
424.331886    	3.004568e+02
425.331886    	3.001848e+02
426.331886    	2.999431e+02
427.331886    	2.997284e+02
428.331886    	2.995375e+02
429.331886    	2.993678e+02
430.331886    	2.992169e+02
431.331886    	2.990828e+02
432.331886    	2.989634e+02
433.331886    	2.988573e+02
434.331886    	2.987628e+02
435.331886    	2.986788e+02
436.331886    	2.986041e+02
437.331886    	2.985376e+02
438.331886    	2.984784e+02
439.331886    	2.984257e+02
440.331886    	2.983789e+02
441.331886    	2.983372e+02
442.331886    	2.983001e+02
443.331886    	2.982671e+02
444.331886    	2.982377e+02
445.331886    	2.982115e+02
446.331886    	2.981882e+02
447.331886    	2.981675e+02
448.331886    	2.981491e+02
449.331886    	2.981327e+02
450.331886    	2.981181e+02
451.331886    	2.981051e+02
452.331886    	2.980935e+02
453.331886    	2.980833e+02
454.331886    	2.980741e+02
455.331886    	2.980659e+02
456.331886    	2.980587e+02
457.331886    	2.980522e+02
458.331886    	2.980465e+02
459.331886    	2.980414e+02
460.331886    	2.980368e+02
461.331886    	2.980328e+02
462.331886    	2.980292e+02
463.331886    	2.980260e+02
464.331886    	2.980231e+02
465.331886    	2.980206e+02
466.331886    	2.980183e+02
467.331886    	2.980163e+02
468.331886    	2.980145e+02
469.331886    	2.980129e+02
470.331886    	2.980115e+02
471.331886    	2.980102e+02
472.331886    	2.980091e+02
473.331886    	2.980081e+02
474.331886    	2.980072e+02
475.331886    	2.980064e+02
476.331886    	2.980057e+02
477.331886    	2.980051e+02
478.331886    	2.980045e+02
479.331886    	2.980040e+02
480.331886    	2.980036e+02
481.331886    	2.980032e+02
482.331886    	2.980028e+02
483.331886    	2.980025e+02
484.331886    	2.980022e+02
485.331886    	2.980020e+02
486.331886    	2.980018e+02
487.331886    	2.980016e+02
488.331886    	2.980014e+02
489.331886    	2.980013e+02
490.331886    	2.980011e+02
491.331886    	2.980010e+02
492.331886    	2.980009e+02
493.331886    	2.980008e+02
494.331886    	2.980007e+02
495.331886    	2.980006e+02
496.331886    	2.980006e+02
497.331886    	2.980005e+02
498.331886    	2.980004e+02
499.331886    	2.980004e+02
500.331886    	2.980003e+02
501.331886    	2.980003e+02
502.331886    	2.980003e+02
503.331886    	2.980002e+02
504.331886    	2.980002e+02
505.331886    	2.980002e+02
506.331886    	2.980002e+02
507.331886    	2.980002e+02
508.331886    	2.980001e+02
509.331886    	2.980001e+02
510.331886    	2.980001e+02
511.331886    	2.980001e+02
512.331886    	2.980001e+02
513.331886    	2.980001e+02
514.331886    	2.980001e+02
515.331886    	2.980001e+02
516.331886    	2.980001e+02
517.331886    	2.980000e+02
518.331886    	2.980000e+02
519.331886    	2.980000e+02
520.331886    	2.980000e+02
521.331886    	2.980000e+02
522.331886    	2.980000e+02
523.331886    	2.980000e+02
524.331886    	2.980000e+02
525.331886    	2.980000e+02
526.331886    	2.980000e+02
527.331886    	2.980000e+02
528.331886    	2.980000e+02
529.331886    	2.980000e+02
530.331886    	2.980000e+02
531.331886    	2.980000e+02
532.331886    	2.980000e+02
533.331886    	2.980000e+02
534.331886    	2.980000e+02
535.331886    	2.980000e+02
536.331886    	2.980000e+02
537.331886    	2.980000e+02
538.331886    	2.980000e+02
539.331886    	2.980000e+02
540.331886    	2.980000e+02
541.331886    	2.980000e+02
542.331886    	2.980000e+02
543.331886    	2.980000e+02
544.331886    	2.980000e+02
545.331886    	2.980000e+02
546.331886    	2.980000e+02
547.331886    	2.980000e+02
548.331886    	2.980000e+02
549.331886    	2.980000e+02
550.331886    	2.980000e+02
551.331886    	2.980000e+02
552.331886    	2.980000e+02
553.331886    	2.980000e+02
554.331886    	2.980000e+02
555.331886    	2.980000e+02
556.331886    	2.980000e+02
557.331886    	2.980000e+02
558.331886    	2.980000e+02
559.331886    	2.980000e+02
560.331886    	2.980000e+02
561.331886    	2.980000e+02
562.331886    	2.980000e+02
563.331886    	2.980000e+02
564.331886    	2.980000e+02
565.331886    	2.980000e+02
566.331886    	2.980000e+02
567.331886    	2.980000e+02
568.331886    	2.980000e+02
569.331886    	2.980000e+02
570.331886    	2.980000e+02
571.331886    	2.980000e+02
572.331886    	2.980000e+02
573.331886    	2.980000e+02
574.331886    	2.980000e+02
575.331886    	2.980000e+02
576.331886    	2.980000e+02
577.331886    	2.980000e+02
578.331886    	2.980000e+02
579.331886    	2.980000e+02
580.331886    	2.980000e+02
581.331886    	2.980000e+02
582.331886    	2.980000e+02
583.331886    	2.980000e+02
584.331886    	2.980000e+02
585.331886    	2.980000e+02
586.331886    	2.980000e+02
587.331886    	2.980000e+02
588.331886    	2.980000e+02
589.331886    	2.980000e+02
590.331886    	2.980000e+02
591.331886    	2.980000e+02
592.331886    	2.980000e+02
593.331886    	2.980000e+02
594.331886    	2.980000e+02
595.331886    	2.980000e+02
596.331886    	2.980000e+02
597.331886    	2.980000e+02
598.331886    	2.980000e+02
599.331886    	2.980000e+02
