/*--------------------------------*- C++ -*----------------------------------*\
  =========                 |
  \\      /  F ield         | OpenFOAM: The Open Source CFD Toolbox
   \\    /   O peration     | Website:  https://openfoam.org
    \\  /    A nd           | Version:  13
     \\/     M anipulation  |
\*---------------------------------------------------------------------------*/
FoamFile
{
    format      ascii;
    class       volScalarField;
    location    "34.831886";
    object      T;
}
// * * * * * * * * * * * * * * * * * * * * * * * * * * * * * * * * * * * * * //

dimensions      [0 0 0 1 0 0 0];

internalField   nonuniform List<scalar> 
5712
(
578.301
577.781
576.924
576.124
574.862
574.05
572.021
571.36
572.609
571.838
574.84
574.062
576.473
575.739
577.705
577.149
574.213
573.181
572.825
571.395
570.756
569.432
569.479
567.795
580.1
583.078
579.544
582.326
578.797
581.645
577.929
580.619
575.818
577.416
574.363
576.382
579.882
578.179
571.108
568.572
569.714
567.821
567.961
565.819
566.31
564.683
574.09
571.448
572.571
570.568
576.479
573.914
586.501
588.55
585.076
587.206
585.051
587.624
583.371
585.737
582.941
586.417
580.349
583.573
578.346
581.532
576.058
579.294
573.445
572.99
571.237
571.024
568.855
568.274
567.098
566.521
575.244
575.857
577.84
577.951
569.369
569.392
567.678
568.034
565.51
565.043
564.018
563.78
573.121
574.121
571.236
572.714
579.195
583.079
580.683
585.055
581.997
585.978
582.875
587.42
576.884
580.657
578.881
583.166
574.838
578.552
577.458
581.675
591.375
595.866
592.115
596.572
590.029
594.211
591.381
595.633
587.756
590.97
590.13
593.63
576.576
571.146
581.52
585.253
589.333
571.938
577.682
583.586
587.574
591.983
570.49
575.602
580.57
585.299
589.966
600.018
602.061
602.282
604.093
597.926
600.274
600.867
602.824
594.284
596.919
598.441
600.774
573.238
575.374
579.518
582.422
585.325
588.337
589.968
592.945
596.168
599.149
571.455
573.185
577.185
580.2
582.581
586.017
587.982
591.694
594.84
598.749
574.48
577.861
572.059
575.062
568.853
569.866
566.689
567.284
577.787
581.773
580.154
584.385
570.004
573.017
568.67
571.546
564.945
565.514
563.687
564.122
575.634
579.695
574.287
578.255
584.346
589.176
592.515
598.374
586.256
591.325
593.792
599.543
582.585
587.263
591.29
597.055
580.921
585.645
589.541
594.999
602.711
603.646
605.382
603.107
603.511
605.099
601.37
602.52
604.36
602.093
602.586
604.296
598.606
600.113
602.166
600.555
601.292
603.211
578.002
581.004
584.213
585.527
588.167
591.019
591.213
593.499
596.025
595.292
597.217
599.636
599.347
600.367
602.615
575.622
578.989
582.619
584.229
587.756
591.366
590.107
593.232
596.482
594.875
597.239
600.123
599.313
600.632
603.225
564.654
563.582
563.696
562.315
567.399
566.077
566.299
564.661
564.177
562.049
563.91
561.934
563.531
561.634
563.064
561.29
561.538
562.454
560.944
562.024
561.206
560.449
561.228
559.962
563.343
561.936
560.902
559.687
560.055
558.906
559.988
558.8
559.915
558.06
560.27
558.543
559.611
557.708
559.689
557.948
559.307
557.239
558.781
556.916
558.374
556.754
557.361
556.056
562.181
561.252
560.936
559.901
565.062
564.255
563.605
562.734
559.094
557.864
560.185
559.05
559.723
558.733
558.517
557.702
562.229
561.426
560.898
560.277
558.026
556.832
556.922
555.917
557.57
555.982
556.554
555.648
558.452
556.727
557.589
556.515
556.697
555.316
555.647
554.899
555.735
554.602
554.847
554.248
560.041
561.01
558.276
559.272
559.987
561.01
558.128
559.162
559.902
560.823
557.888
558.814
563.118
566.548
560.992
559.328
557.596
567.272
563.876
561.901
560.263
558.413
565.881
562.542
560.17
558.596
557.371
562.657
564.914
560.931
563.116
562.505
564.663
560.652
562.749
562.132
564.177
560.116
562.072
568.225
569.999
564.62
566.419
562.588
564.426
561.042
562.907
559.294
561.141
566.478
567.531
563.052
564.111
560.746
561.996
559.288
560.809
558.22
560.084
561.07
561.469
559.688
559.717
564.178
564.479
562.523
562.347
557.888
558.386
559.079
559.884
558.622
558.366
557.603
557.246
561.235
560.786
560.09
559.518
556.928
557.176
556.015
556.174
556.814
557.805
556.39
557.909
557.899
559.159
557.237
558.957
555.924
556.682
555.658
556.986
555.169
555.836
554.995
556.151
567.983
571.048
573.957
566.872
570.33
573.247
567.548
570.654
573.63
566.353
569.836
572.88
566.892
569.943
572.968
565.512
569.161
572.412
572.392
575.374
578.604
568.857
571.939
575.231
566.895
570.102
573.446
565.513
568.705
571.937
564.598
568.439
571.983
569.446
572.68
576.339
566.111
569.398
573.066
564.272
567.744
571.515
563.468
567.114
570.915
563.699
567.73
571.628
557.428
558.972
562.699
569.426
558.002
559.648
563.501
570.295
557.173
558.771
562.51
569.3
557.539
559.281
563.167
569.978
556.835
558.513
562.098
568.689
556.689
558.55
562.369
569.101
556.784
558.834
562.922
569.825
556.402
558.669
562.923
569.878
556.044
558.01
561.742
568.412
556.145
558.234
561.659
567.662
556.6
558.384
561.768
567.962
556.767
558.667
561.859
567.517
555.589
557.736
561.754
568.667
555.603
557.857
561.476
567.616
555.123
557.447
561.603
568.481
555.127
557.527
561.25
567.362
557.532
558.925
562.322
568.652
558.346
559.551
562.467
568.001
557.458
558.89
562.242
568.534
558.308
559.561
562.462
567.947
557.351
558.861
562.108
568.219
558.131
559.496
562.404
567.823
557.314
558.927
562.018
567.773
557.962
559.45
562.325
567.593
557.385
559.112
562.069
567.342
559.6
560.642
563.282
567.224
561.011
561.951
564.641
568.322
559.441
560.555
563.215
567.149
560.844
561.869
564.592
568.287
559.151
560.403
563.124
567.085
560.553
561.73
564.519
568.222
558.73
560.171
562.949
566.929
560.157
561.527
564.398
568.131
558.187
559.868
562.737
566.759
559.695
561.293
564.267
568.041
557.151
559.279
562.453
566.625
558.51
560.609
563.836
567.746
557.66
559.576
562.603
566.703
559.099
560.954
564.054
567.889
556.692
559.003
562.315
566.562
557.965
560.283
563.638
567.591
556.251
558.717
562.123
566.405
557.465
559.966
563.429
567.425
579.66
587.925
594.974
600.711
605.119
580.162
588.339
595.37
601.101
605.507
579.601
587.895
594.955
600.696
605.106
580.073
588.28
595.324
601.062
605.471
579.488
587.844
594.922
600.67
605.083
579.71
587.967
595.031
600.779
605.192
579.909
588.177
595.251
601.005
605.421
579.789
588.089
595.185
600.951
605.373
579.416
587.804
594.897
600.652
605.069
579.822
588.399
595.519
601.276
605.69
579.506
587.949
595.044
600.795
605.209
579.951
588.536
595.65
601.403
605.814
579.408
587.803
594.907
600.67
605.09
579.867
588.463
595.593
601.357
605.773
579.283
587.719
594.846
600.62
605.045
579.836
588.471
595.62
601.393
605.813
579.714
588.114
595.183
600.92
605.327
580.305
588.831
595.908
601.641
606.043
579.7
588.127
595.204
600.944
605.352
580.29
588.831
595.915
601.65
606.053
579.709
588.188
595.279
601.024
605.433
580.295
588.865
595.957
601.696
606.1
579.884
588.447
595.552
601.3
605.71
580.395
588.99
596.091
601.833
606.239
580.239
588.832
595.941
601.689
606.096
611.867
613.172
611.291
612.622
610.237
611.714
608.899
610.628
607.567
609.566
605.463
607.774
606.54
608.799
604.398
606.626
603.288
605.315
626.154
641.881
655.217
665.731
673.082
625.934
641.774
655.261
665.845
673.317
625.893
641.744
655.13
665.667
673.026
625.701
641.674
655.176
665.823
673.278
625.37
641.449
654.936
665.522
672.901
625.196
641.392
654.99
665.684
673.159
624.662
641.027
654.651
665.309
672.718
624.549
641.007
654.732
665.491
672.995
623.837
640.492
654.28
665.027
672.477
623.85
640.553
654.415
665.249
672.784
622.048
639.168
653.285
664.234
671.769
622.238
639.368
653.527
664.531
672.127
622.946
639.849
653.807
664.658
672.153
623.09
640.011
654.022
664.938
672.504
621.147
638.469
652.738
663.784
671.362
621.275
638.619
652.937
664.042
671.68
620.224
637.742
652.165
663.314
670.94
620.221
637.818
652.289
663.507
671.216
561.394
563.336
565.095
562.872
565.926
565.61
565.503
565.073
566.131
565.545
568.749
568.065
570.155
569.383
568.187
567.54
567.429
566.98
567.293
566.946
563.025
562.56
568.847
571.337
572.048
572.327
570.056
568.613
571.394
568.198
573.818
577.447
568.915
569.886
572.695
569.705
570.919
571.186
566.33
566.207
567.8
567.298
566.546
565.999
566.739
567.622
570.738
570.196
568.956
568.405
564.006
563.309
564.602
564.061
565.005
565.154
566.928
569.072
566.854
559.435
557.623
556.876
557.015
558.059
559.895
558.383
557.741
558.035
559.37
567.035
566.197
566.124
566.862
568.447
569.588
568.821
568.817
569.608
571.217
570.274
569.474
569.436
570.198
571.79
570.581
569.815
569.811
570.601
572.208
568.262
567.445
567.39
568.141
569.732
564.68
562.322
561.103
560.889
561.644
567.2
564.649
563.35
563.124
563.994
565.398
563.617
562.69
562.777
564.003
569.933
567.476
566.273
566.157
567.223
573.646
571.123
569.899
569.771
570.84
566.693
565.411
564.913
565.326
566.736
567.301
565.685
564.9
565.1
566.396
570.187
568.629
567.889
568.123
569.435
567.632
566.499
566.136
566.649
568.112
568.717
567.451
566.966
567.387
568.8
569.151
568.055
567.724
568.26
569.732
562.734
560.731
559.739
559.681
560.584
563.735
562.241
561.556
561.817
563.141
565.691
564.524
564.131
564.621
566.074
565.283
564.22
563.925
564.49
565.984
564.374
563.151
562.708
563.158
564.59
563.947
562.848
562.522
563.063
564.545
564.824
563.874
563.692
564.346
565.889
565.72
564.779
564.603
565.26
566.803
568.852
567.923
567.754
568.413
569.952
568.362
567.495
567.389
568.1
569.667
566.978
565.949
565.685
566.272
567.776
566.488
565.528
565.333
565.975
567.508
560.521
558.658
557.841
557.923
558.904
560.808
559.375
558.781
559.112
560.472
561.712
560.052
559.258
559.393
560.515
561.83
560.578
560.118
560.555
561.98
562.893
561.74
561.366
561.87
563.332
562.735
561.302
560.664
560.958
562.299
564.996
564.025
563.821
564.458
565.991
567.231
566.358
566.25
566.959
568.528
564.868
563.836
563.574
564.164
565.672
562.415
563.525
562.511
563.742
559.819
561.106
559.761
560.901
562.622
562.777
563.809
563.581
559.866
559.949
561.055
560.72
565.18
567.9
566.177
568.788
565.201
567.664
566.374
568.789
566.435
565.393
565.863
565.172
567.303
568.35
565.273
566.528
564.726
566.104
562.61
563.93
561.851
563.135
567.851
569.201
567.056
568.602
569.825
571.453
570.404
572.585
571.172
573.248
570.233
572.827
571.23
573.527
569.797
573.317
570.479
573.602
571.845
575.044
573.719
576.984
563.643
564.362
564.212
565.034
560.207
560.453
560.814
561.036
567.486
569.529
566.976
568.828
565.122
565.846
566.292
566.851
561.698
561.782
562.777
562.687
568.412
570.375
569.687
571.467
570.907
574.803
574.215
578.638
570.566
574.767
573.614
578.279
571.801
575.527
575.038
579.334
573.156
576.83
576.177
580.395
570.585
571.868
573.017
575.048
570.391
571.442
573.384
575.331
570.03
570.592
574.043
575.651
563.497
559.946
566.99
570.758
575.585
559.826
563.2
566.686
570.658
576.422
560.141
563.965
568.39
573.254
578.306
573.962
574.898
580.407
582.29
572.988
573.927
580.023
581.904
571.546
572.318
579.561
581.454
559.895
560.395
563.498
564.1
567.281
567.894
571.874
572.666
580.18
582.206
560.155
560.678
564.367
565.62
569.186
570.786
574.806
576.732
582.435
584.898
565.394
567.581
566.006
568.253
560.594
560.813
561.121
561.226
571.451
574.68
570.705
573.759
566.531
569.118
567.529
570.296
561.742
561.998
562.631
562.985
571.987
575.618
573.092
576.948
578.003
582.195
586.39
591.709
576.882
580.943
584.854
589.826
578.861
583.209
587.692
593.18
579.662
584.305
588.394
593.787
575.247
576.062
581.034
581.145
574.306
575.21
580.793
580.822
572.919
574.228
580.553
580.65
561.444
563.314
565.238
567.001
568.892
570.418
573.474
574.909
581.015
581.003
561.733
563.746
567.335
569.187
572.294
573.68
577.324
577.943
582.543
582.148
555.562
555.493
556.718
556.244
557.464
557.403
558.678
558.186
554.234
553.322
555.321
554.372
554.272
553.419
555.453
554.533
555.272
554.262
555.12
554.364
553.619
554.58
557.321
558.604
559.253
560.508
556.672
558.125
556.228
557.527
555.939
557.272
552.808
552.551
553.829
553.516
552.81
552.468
553.891
553.456
552.866
552.363
553.683
553.061
554.906
554.15
556.091
555.108
555.17
555.114
555.718
555.508
557.34
557.317
557.924
557.809
554.269
553.982
553.769
553.663
556.515
556.088
557.461
556.812
558.762
558.477
559.766
559.286
555.024
554.484
555.923
555.127
553.267
552.672
553.149
552.885
552.815
552.372
552.887
552.704
553.981
553.217
553.58
553.217
554.822
553.886
554.15
553.68
552.35
552.503
552.164
552.428
552.427
552.596
552.172
552.464
552.609
552.748
552.233
552.495
554.958
557.088
553.587
552.709
552.387
557.101
555.057
553.709
552.835
552.567
557.058
554.945
553.553
552.819
552.694
553.199
554.43
553.256
554.57
553.186
554.337
553.191
554.45
553.194
554.215
553.096
554.249
557.108
557.593
555.066
555.666
553.841
554.59
553.105
553.979
553.034
554.081
556.934
557.133
554.86
555.144
553.591
554.105
553.007
553.792
553.092
554.139
554.826
554.758
555.29
555.008
556.994
556.735
557.547
557.025
553.98
554.134
553.599
553.92
556.005
555.564
556.732
556.328
558.321
557.645
559.126
558.495
554.584
554.633
555.236
555.338
553.388
554.004
553.555
554.601
553.092
553.844
553.274
554.381
553.848
554.412
553.949
555.015
554.451
555.062
554.428
555.516
555.945
557.38
556.488
558.171
555.748
557.288
556.337
558.118
555.565
557.268
556.106
558.17
558.637
560.515
556.815
558.734
555.8
557.73
555.308
557.291
555.945
558.375
557.985
560.146
556.146
558.402
555.353
557.708
555.331
557.781
556.192
558.944
553.61
556.4
560.945
568.241
554.498
557.28
561.878
569.191
553.554
556.329
560.857
568.204
554.408
557.161
561.716
569
553.512
556.266
560.572
567.685
554.055
556.763
561.133
568.264
555.016
557.631
562.09
569.257
555.759
558.232
562.619
569.667
553.765
556.457
560.656
567.653
554.201
556.904
560.707
566.955
553.616
556.36
560.368
567.012
554.1
556.855
560.595
566.625
554.138
556.744
561.051
568.16
554.411
557.038
560.878
567.15
554.621
557.103
561.359
568.305
554.723
557.249
561.045
567.2
553.31
556.097
560.396
567.343
553.699
556.473
560.371
566.545
553.366
556.146
560.381
567.285
553.786
556.562
560.426
566.543
553.503
556.276
560.356
567.06
553.899
556.678
560.495
566.521
553.772
556.542
560.394
566.693
554.056
556.839
560.558
566.403
554.148
556.929
560.568
566.309
554.631
557.399
561.081
565.554
555.862
558.634
562.37
566.53
554.629
557.403
561.073
565.528
555.866
558.646
562.381
566.541
554.653
557.437
561.112
565.573
555.894
558.691
562.429
566.57
554.687
557.486
561.121
565.566
555.928
558.746
562.475
566.607
554.759
557.57
561.149
565.554
556
558.845
562.559
566.676
555.172
557.936
561.489
565.847
556.29
559.113
562.775
566.888
554.929
557.732
561.307
565.695
556.093
558.945
562.638
566.749
555.487
558.181
561.718
566.064
556.613
559.368
562.986
567.06
555.848
558.441
561.921
566.235
557.019
559.663
563.213
567.248
578.955
587.492
594.702
600.528
604.975
579.49
587.922
595.108
600.924
605.368
578.957
587.5
594.707
600.529
604.975
579.484
587.916
595.095
600.908
605.35
578.92
587.497
594.705
600.524
604.968
579.221
587.665
594.842
600.651
605.092
579.568
587.966
595.119
600.916
605.351
579.66
588.009
595.135
600.917
605.346
578.975
587.534
594.728
600.538
604.979
579.431
588.162
595.371
601.177
605.612
578.987
587.633
594.846
600.663
605.105
579.484
588.255
595.475
601.285
605.721
579.103
587.616
594.79
600.591
605.027
579.6
588.301
595.492
601.288
605.719
579.178
587.654
594.805
600.593
605.023
579.743
588.414
595.584
601.369
605.794
578.975
587.666
594.903
600.731
605.179
579.543
588.373
595.623
601.449
605.892
579.006
587.706
594.941
600.767
605.214
579.562
588.395
595.642
601.466
605.909
579.085
587.811
595.043
600.865
605.309
579.631
588.467
595.709
601.529
605.969
579.326
588.112
595.343
601.159
605.6
579.808
588.639
595.871
601.685
606.123
579.724
588.523
595.748
601.559
605.995
594.104
595.6
594.313
595.842
594.791
596.361
595.555
597.093
596.785
598.114
599.916
601.649
598.513
600.02
601.121
603.031
602.21
604.148
613.187
632.6
648.282
660.209
668.243
612.764
632.383
648.269
660.287
668.462
613.379
632.736
648.379
660.284
668.306
613.015
632.576
648.376
660.414
668.547
613.769
633.007
648.572
660.432
668.432
613.395
632.835
648.558
660.553
668.665
614.377
633.423
648.872
660.666
668.634
613.955
633.214
648.828
660.762
668.847
615.241
634.007
649.298
661.004
668.93
614.678
633.694
649.177
661.038
669.088
617.314
635.452
650.371
661.856
669.663
616.946
635.235
650.301
661.91
669.817
616.262
634.69
649.8
661.403
669.277
615.717
634.37
649.666
661.42
669.41
618.312
636.218
650.962
662.33
670.073
618.116
636.116
650.966
662.433
670.259
619.285
636.994
651.572
662.828
670.509
619.191
636.995
651.636
662.973
670.742
559.751
561.586
560.192
558.277
555.589
556.698
555.576
556.842
557.476
558.787
557.464
558.592
580.62
580.253
579.345
577.908
575.973
573.647
580.749
580.399
579.535
578.188
576.419
574.343
581.524
582.864
581.108
582.39
580.089
581.236
578.458
579.357
576.28
576.956
573.754
574.48
571.154
568.792
566.762
565.085
563.83
562.922
572.131
569.984
568.054
566.433
565.177
564.303
578.985
578.34
578.453
579.329
580.969
578.614
577.965
578.075
578.948
580.587
577.698
577.041
577.144
578.013
579.651
576.249
575.579
575.67
576.53
578.166
574.294
573.604
573.675
574.522
576.154
571.938
571.216
571.256
572.081
573.705
579.113
578.466
578.577
579.451
581.09
578.759
578.108
578.215
579.087
580.724
577.887
577.227
577.327
578.193
579.829
576.526
575.853
575.94
576.796
578.43
574.738
574.043
574.11
574.952
576.581
572.633
571.908
571.945
572.765
574.386
579.892
579.249
579.364
580.24
581.878
581.236
580.595
580.71
581.585
583.22
579.473
578.826
578.937
579.811
581.448
580.758
580.113
580.224
581.096
582.731
578.446
577.791
577.896
578.764
580.401
579.596
578.942
579.046
579.913
581.547
576.802
576.133
576.225
577.086
578.721
577.702
577.033
577.123
577.981
579.613
574.602
573.912
573.983
574.83
576.461
575.277
574.583
574.65
575.492
577.119
572.045
571.322
571.361
572.185
573.808
572.768
572.039
572.072
572.889
574.507
569.402
568.631
568.625
569.415
571.024
566.978
566.14
566.068
566.807
568.392
564.861
563.928
563.764
564.433
565.984
563.062
562.005
561.726
562.307
563.812
561.664
560.482
560.096
560.597
562.059
560.66
559.408
558.969
559.43
560.87
570.381
569.612
569.607
570.395
572.002
568.182
567.354
567.292
568.038
569.625
566.185
565.284
565.15
565.842
567.404
564.484
563.501
563.29
563.922
565.454
563.153
562.095
561.818
562.401
563.908
562.235
561.139
560.829
561.389
562.884
580.441
579.716
578.448
576.649
574.347
571.645
580.571
579.866
578.648
576.949
574.839
572.448
581.338
582.668
580.549
581.803
579.155
580.252
577.141
577.965
574.575
575.16
571.616
572.183
568.804
566.211
564.147
562.77
562.21
562.336
569.983
567.71
565.848
564.553
563.9
563.85
578.807
578.162
578.276
579.153
580.794
578.078
577.431
577.544
578.421
580.062
576.804
576.151
576.26
577.135
578.778
574.994
574.332
574.432
575.303
576.946
572.676
571.998
572.085
572.947
574.59
569.949
569.247
569.313
570.16
571.8
578.936
578.289
578.402
579.277
580.916
578.227
577.578
577.689
578.564
580.204
577.002
576.347
576.453
577.325
578.966
575.292
574.627
574.724
575.591
577.232
573.166
572.484
572.567
573.424
575.064
570.75
570.044
570.104
570.946
572.582
579.706
579.064
579.18
580.056
581.695
581.041
580.4
580.517
581.392
583.028
578.915
578.27
578.384
579.261
580.901
580.172
579.529
579.643
580.519
582.156
577.513
576.863
576.973
577.848
579.489
578.614
577.965
578.075
578.948
580.587
575.488
574.828
574.93
575.8
577.443
576.314
575.654
575.755
576.624
578.264
572.905
572.229
572.317
573.18
574.823
573.491
572.813
572.9
573.76
575.4
569.922
569.223
569.29
570.139
571.78
570.489
569.788
569.853
570.7
572.339
567.073
566.334
566.365
567.188
568.82
564.43
563.637
563.616
564.4
566.015
562.29
561.417
561.318
562.044
563.631
560.798
559.808
559.601
560.244
561.787
560.089
558.964
558.638
559.189
560.683
560.093
558.863
558.448
558.929
560.382
568.252
567.51
567.537
568.354
569.981
565.933
565.141
565.12
565.902
567.514
564.009
563.151
563.065
563.799
565.387
562.636
561.696
561.533
562.207
563.766
561.902
560.878
560.638
561.253
562.779
561.791
560.708
560.412
560.984
562.487
562.011
561.768
565.881
568.786
568.869
569.597
566.948
560.24
561.012
560.651
562.885
562.779
562.309
564.215
564.528
565.647
560.113
560.4
562.483
562.731
561.466
561.862
563.482
563.84
566.34
566.412
564.182
564.22
561.035
561.126
560.149
561.008
561.319
560.39
563.258
565.563
562.712
558.482
556.759
556.077
556.271
557.369
559.138
557.669
557.07
557.4
558.757
564.11
563.329
563.32
564.113
565.735
567.061
566.33
566.369
567.198
568.833
567.136
566.393
566.418
567.236
568.864
567.879
567.154
567.198
568.03
569.665
565.197
564.438
564.449
565.258
566.885
557.134
555.582
554.988
555.265
556.372
557.999
556.514
555.987
556.329
557.526
558.356
557.102
556.669
557.139
558.586
560.182
558.855
558.44
558.885
560.26
560.824
559.853
559.665
560.324
561.876
560.196
559.09
558.784
559.353
560.856
562.338
561.442
561.321
562.029
563.606
562.615
561.681
561.523
562.202
563.764
563.798
562.929
562.831
563.556
565.14
557.059
555.537
554.965
555.26
556.402
558.217
557.047
556.683
557.205
558.683
560.561
559.622
559.462
560.142
561.707
560.847
559.947
559.823
560.531
562.111
559.479
558.478
558.263
558.9
560.443
559.928
558.977
558.807
559.478
561.04
561.632
560.767
560.677
561.41
563.002
562.016
561.179
561.115
561.867
563.469
564.547
563.739
563.701
564.471
566.078
564.642
563.861
563.85
564.642
566.261
562.339
561.478
561.391
562.126
563.717
562.4
561.565
561.503
562.257
563.859
557.732
556.118
555.49
555.734
556.865
558.714
557.389
556.903
557.326
558.744
557.517
556.139
555.61
555.97
557.243
558.878
557.75
557.419
557.966
559.457
559.316
558.299
558.068
558.692
560.228
558.185
556.995
556.607
557.108
558.575
561.406
560.54
560.449
561.181
562.773
563.783
562.992
562.972
563.758
565.375
560.833
559.937
559.819
560.53
562.112
563.519
561.982
561.347
561.563
562.562
564.541
562.048
562.182
559.398
559.336
562.326
562.574
559.497
559.644
564.932
567.957
564.965
567.685
565.258
565.122
567.2
561.966
562.115
559.285
559.205
562.273
562.524
559.408
559.604
565.088
568.288
565.112
567.935
565.39
565.179
567.415
562.001
562.164
559.255
559.156
562.335
562.597
559.407
559.613
565.237
569.116
565.264
568.651
565.544
565.318
568.015
562.554
562.713
559.742
559.636
562.898
563.206
559.902
560.14
566.002
570.107
565.995
569.606
566.237
565.973
568.841
563.54
563.692
560.737
560.631
563.875
564.236
560.893
561.128
567.01
570.851
566.984
570.453
567.182
566.988
569.706
565.317
565.456
562.565
562.463
565.603
565.907
562.714
562.925
568.594
572.137
568.538
571.761
568.7
568.491
571.007
555.154
555.146
557.034
557.018
555.201
555.251
557.092
557.178
553.822
552.836
553.892
552.989
553.921
554.1
553.297
555.013
555.029
556.909
556.873
555.121
555.216
556.999
557.102
553.623
552.816
553.731
553.008
553.836
554.077
553.337
554.946
554.993
556.858
556.797
555.131
555.268
556.987
557.139
553.705
553.193
553.841
553.366
554.016
554.267
553.672
555.426
555.495
557.334
557.258
555.663
555.85
557.483
557.64
554.31
554.08
554.469
554.24
554.707
555.008
554.531
556.463
556.542
558.348
558.267
556.75
557.002
558.499
558.674
555.462
555.39
555.634
555.519
555.902
556.238
555.762
558.373
558.454
560.218
560.137
558.662
558.882
560.369
560.535
557.387
557.118
557.551
557.26
557.776
558.063
557.508
578.395
577.902
576.944
576.143
574.878
574.064
572.032
571.37
572.62
571.848
574.856
574.078
576.495
575.76
577.819
577.29
574.224
573.188
572.834
571.402
570.764
569.437
569.487
567.8
580.171
583.13
579.64
582.404
578.813
581.658
577.942
580.628
575.826
577.427
574.37
576.39
579.892
578.187
571.115
568.576
569.719
567.825
567.966
565.822
566.314
564.686
574.096
571.452
572.576
570.572
576.485
573.918
586.548
588.596
585.147
587.276
585.059
587.631
583.377
585.741
582.947
586.422
580.355
583.578
578.351
581.536
576.062
579.297
573.449
572.994
571.242
571.027
568.859
568.277
567.101
566.524
575.249
575.86
577.845
577.955
569.373
569.395
567.68
568.036
565.513
565.046
564.02
563.782
573.125
574.124
571.239
572.717
579.2
583.083
580.686
585.058
582.001
585.983
582.878
587.423
576.888
580.66
578.884
583.169
574.841
578.555
577.461
581.678
591.432
595.927
592.155
596.612
590.033
594.212
591.387
595.638
587.76
590.972
590.134
593.634
576.58
571.149
581.523
585.257
589.336
571.941
577.685
583.589
587.577
591.986
570.493
575.605
580.573
585.303
589.97
600.082
602.125
602.319
604.127
597.926
600.272
600.869
602.825
594.285
596.92
598.443
600.775
573.24
575.376
579.52
582.424
585.327
588.339
589.97
592.947
596.17
599.151
571.457
573.187
577.188
580.203
582.584
586.02
587.985
591.697
594.843
598.751
574.483
577.863
572.062
575.065
568.856
569.868
566.692
567.286
577.79
581.776
580.157
584.388
570.006
573.019
568.672
571.548
564.948
565.516
563.688
564.124
575.637
579.698
574.289
578.257
584.349
589.179
592.517
598.377
586.259
591.328
593.795
599.545
582.588
587.266
591.293
597.057
580.923
585.647
589.543
595.001
602.768
603.696
605.429
603.143
603.543
605.129
601.368
602.52
604.361
602.095
602.589
604.3
598.606
600.114
602.168
600.557
601.294
603.214
578.004
581.006
584.215
585.529
588.169
591.021
591.215
593.501
596.027
595.293
597.218
599.638
599.349
600.369
602.617
575.624
578.991
582.621
584.231
587.758
591.368
590.109
593.234
596.484
594.877
597.24
600.124
599.315
600.634
603.227
564.657
563.585
563.698
562.318
567.405
566.081
566.303
564.665
564.212
562.087
563.963
561.986
563.532
561.636
563.063
561.29
561.539
562.457
560.946
562.026
561.207
560.45
561.23
559.964
563.346
561.938
560.904
559.688
560.057
558.907
559.989
558.802
559.945
558.08
560.316
558.579
559.612
557.709
559.69
557.949
559.309
557.24
558.782
556.917
558.375
556.755
557.362
556.057
562.183
561.254
560.938
559.903
565.065
564.258
563.608
562.737
559.096
557.865
560.187
559.052
559.725
558.735
558.519
557.704
562.232
561.428
560.9
560.279
558.028
556.833
556.924
555.918
557.572
555.983
556.556
555.649
558.453
556.728
557.591
556.516
556.699
555.317
555.648
554.9
555.736
554.602
554.848
554.249
560.059
561.021
558.287
559.277
559.989
561.011
558.13
559.163
559.904
560.824
557.889
558.816
563.12
566.55
560.994
559.329
557.598
567.274
563.878
561.903
560.264
558.415
565.884
562.544
560.171
558.597
557.372
562.665
564.926
560.933
563.12
562.506
564.663
560.653
562.75
562.133
564.177
560.117
562.073
568.227
570.001
564.621
566.421
562.589
564.428
561.043
562.908
559.296
561.142
566.48
567.533
563.054
564.112
560.747
561.998
559.289
560.81
558.221
560.085
561.072
561.471
559.69
559.719
564.18
564.481
562.525
562.349
557.89
558.387
559.081
559.886
558.624
558.368
557.604
557.247
561.237
560.787
560.092
559.52
556.93
557.178
556.017
556.175
556.815
557.806
556.392
557.91
557.9
559.16
557.238
558.958
555.925
556.684
555.659
556.987
555.17
555.837
554.996
556.152
567.998
571.066
573.975
566.876
570.338
573.257
567.548
570.653
573.63
566.355
569.837
572.882
566.893
569.944
572.969
565.513
569.163
572.413
572.394
575.376
578.606
568.859
571.94
575.232
566.897
570.104
573.447
565.514
568.706
571.939
564.599
568.441
571.985
569.448
572.681
576.34
566.113
569.4
573.067
564.273
567.746
571.516
563.469
567.115
570.916
563.701
567.732
571.63
557.442
558.984
562.712
569.443
558.031
559.672
563.526
570.32
557.174
558.772
562.51
569.3
557.539
559.28
563.166
569.976
556.836
558.513
562.098
568.688
556.689
558.55
562.368
569.099
556.784
558.834
562.922
569.824
556.402
558.669
562.923
569.877
556.044
558.01
561.742
568.411
556.146
558.234
561.659
567.662
556.601
558.384
561.768
567.961
556.768
558.668
561.859
567.517
555.59
557.737
561.754
568.666
555.604
557.857
561.476
567.616
555.123
557.447
561.603
568.481
555.128
557.527
561.25
567.361
557.538
558.928
562.328
568.663
558.346
559.549
562.467
568.005
557.459
558.891
562.243
568.533
558.309
559.562
562.463
567.946
557.352
558.861
562.108
568.219
558.132
559.497
562.405
567.823
557.315
558.928
562.018
567.773
557.963
559.451
562.325
567.593
557.386
559.113
562.069
567.341
559.596
560.636
563.277
567.224
561.006
561.943
564.633
568.315
559.442
560.556
563.215
567.149
560.845
561.87
564.594
568.288
559.152
560.403
563.124
567.085
560.554
561.731
564.52
568.223
558.731
560.172
562.949
566.929
560.158
561.527
564.398
568.132
558.188
559.869
562.738
566.758
559.696
561.294
564.267
568.041
557.151
559.28
562.453
566.625
558.511
560.609
563.836
567.746
557.661
559.577
562.603
566.703
559.1
560.955
564.054
567.889
556.693
559.003
562.316
566.562
557.966
560.284
563.639
567.591
556.252
558.717
562.123
566.405
557.466
559.967
563.429
567.424
579.665
587.927
594.975
600.711
605.119
580.178
588.35
595.38
601.111
605.517
579.6
587.894
594.954
600.695
605.105
580.07
588.277
595.321
601.059
605.467
579.487
587.844
594.921
600.669
605.082
579.708
587.965
595.029
600.777
605.19
579.907
588.175
595.25
601.003
605.419
579.788
588.087
595.184
600.95
605.371
579.415
587.802
594.895
600.651
605.067
579.821
588.398
595.518
601.275
605.689
579.505
587.948
595.043
600.794
605.208
579.95
588.535
595.649
601.402
605.813
579.407
587.802
594.906
600.668
605.088
579.866
588.462
595.592
601.355
605.771
579.283
587.718
594.844
600.619
605.044
579.835
588.47
595.619
601.391
605.812
579.712
588.109
595.177
600.914
605.321
580.299
588.822
595.899
601.631
606.033
579.701
588.128
595.205
600.945
605.353
580.291
588.832
595.915
601.65
606.053
579.709
588.188
595.278
601.023
605.433
580.295
588.865
595.957
601.695
606.1
579.883
588.446
595.551
601.299
605.71
580.395
588.989
596.09
601.832
606.238
580.238
588.832
595.94
601.688
606.095
611.898
613.196
611.291
612.624
610.238
611.716
608.901
610.629
607.569
609.568
605.465
607.776
606.542
608.801
604.401
606.628
603.29
605.317
626.17
641.891
655.224
665.738
673.088
625.943
641.776
655.262
665.845
673.317
625.895
641.744
655.13
665.668
673.026
625.704
641.677
655.177
665.824
673.28
625.371
641.45
654.937
665.523
672.901
625.198
641.393
654.992
665.685
673.16
624.664
641.029
654.653
665.309
672.718
624.551
641.008
654.733
665.492
672.995
623.839
640.494
654.281
665.028
672.477
623.851
640.554
654.416
665.25
672.785
622.05
639.17
653.287
664.236
671.77
622.24
639.37
653.529
664.532
672.129
622.948