/*--------------------------------*- C++ -*----------------------------------*\
  =========                 |
  \\      /  F ield         | OpenFOAM: The Open Source CFD Toolbox
   \\    /   O peration     | Website:  https://openfoam.org
    \\  /    A nd           | Version:  13
     \\/     M anipulation  |
\*---------------------------------------------------------------------------*/
FoamFile
{
    format      ascii;
    class       volScalarField;
    location    "534.831886";
    object      T;
}
// * * * * * * * * * * * * * * * * * * * * * * * * * * * * * * * * * * * * * //

dimensions      [0 0 0 1 0 0 0];

internalField   nonuniform List<scalar> 
5712
(
304.047
304.056
304.071
304.085
304.107
304.121
304.157
304.169
304.147
304.161
304.108
304.121
304.079
304.092
304.058
304.067
304.118
304.136
304.142
304.167
304.179
304.202
304.201
304.231
304.015
303.963
304.025
303.976
304.038
303.988
304.053
304.006
304.09
304.062
304.115
304.08
304.019
304.048
304.172
304.217
304.197
304.23
304.228
304.265
304.257
304.285
304.12
304.166
304.146
304.181
304.078
304.123
303.904
303.868
303.929
303.892
303.929
303.884
303.958
303.917
303.966
303.905
304.01
303.955
304.045
303.99
304.085
304.029
304.132
304.14
304.17
304.174
304.212
304.223
304.243
304.253
304.1
304.089
304.055
304.053
304.203
304.202
304.232
304.226
304.271
304.279
304.297
304.301
304.137
304.12
304.169
304.144
304.031
303.963
304.005
303.93
303.982
303.913
303.967
303.889
304.071
304.005
304.037
303.963
304.106
304.042
304.062
303.989
303.82
303.742
303.807
303.73
303.843
303.771
303.82
303.746
303.882
303.827
303.841
303.781
304.077
304.173
303.991
303.926
303.855
304.159
304.058
303.955
303.886
303.81
304.184
304.094
304.007
303.925
303.845
303.671
303.636
303.632
303.601
303.707
303.666
303.656
303.622
303.77
303.724
303.698
303.658
304.137
304.1
304.027
303.976
303.925
303.873
303.844
303.793
303.738
303.686
304.167
304.137
304.067
304.015
303.973
303.913
303.879
303.815
303.761
303.694
304.114
304.055
304.156
304.104
304.213
304.195
304.251
304.241
304.056
303.988
304.015
303.942
304.192
304.14
304.216
304.166
304.281
304.272
304.303
304.296
304.094
304.024
304.118
304.049
303.943
303.86
303.803
303.702
303.909
303.822
303.78
303.682
303.973
303.893
303.824
303.726
304.002
303.921
303.854
303.761
303.624
303.609
303.58
303.617
303.611
303.584
303.647
303.628
303.597
303.635
303.626
303.598
303.695
303.669
303.635
303.661
303.649
303.617
304.054
304.002
303.947
303.923
303.877
303.829
303.823
303.784
303.742
303.752
303.719
303.679
303.682
303.665
303.628
304.095
304.037
303.975
303.945
303.884
303.823
303.842
303.789
303.734
303.76
303.719
303.671
303.684
303.661
303.618
304.288
304.306
304.304
304.328
304.239
304.262
304.258
304.286
304.297
304.336
304.302
304.338
304.308
304.343
304.317
304.349
304.343
304.327
304.353
304.334
304.35
304.363
304.347
304.369
304.309
304.334
304.354
304.375
304.369
304.389
304.371
304.391
304.374
304.408
304.368
304.4
304.379
304.414
304.378
304.41
304.384
304.422
304.393
304.428
304.4
304.431
304.418
304.443
304.331
304.347
304.353
304.371
304.28
304.294
304.305
304.32
304.386
304.408
304.367
304.387
304.374
304.392
304.395
304.41
304.329
304.343
304.352
304.363
304.405
304.426
304.424
304.442
304.414
304.444
304.432
304.45
304.399
304.431
304.414
304.435
304.429
304.456
304.448
304.463
304.446
304.468
304.462
304.475
304.373
304.356
304.405
304.387
304.373
304.355
304.407
304.389
304.374
304.358
304.411
304.395
304.315
304.254
304.353
304.383
304.416
304.241
304.302
304.337
304.367
304.401
304.265
304.325
304.368
304.396
304.42
304.327
304.286
304.358
304.319
304.329
304.291
304.362
304.325
304.335
304.299
304.371
304.336
304.225
304.194
304.289
304.257
304.325
304.293
304.353
304.32
304.386
304.353
304.255
304.237
304.316
304.298
304.357
304.335
304.384
304.357
304.404
304.371
304.351
304.344
304.375
304.375
304.295
304.29
304.324
304.328
304.407
304.399
304.387
304.373
304.394
304.398
304.412
304.418
304.347
304.355
304.367
304.378
304.424
304.42
304.44
304.438
304.427
304.41
304.437
304.409
304.408
304.386
304.422
304.391
304.443
304.43
304.449
304.426
304.456
304.445
304.461
304.44
304.232
304.178
304.127
304.252
304.191
304.14
304.239
304.185
304.133
304.261
304.199
304.146
304.25
304.197
304.144
304.275
304.211
304.154
304.152
304.101
304.045
304.215
304.161
304.104
304.25
304.193
304.135
304.274
304.218
304.162
304.291
304.223
304.161
304.204
304.147
304.084
304.262
304.205
304.141
304.295
304.234
304.168
304.31
304.246
304.179
304.306
304.235
304.167
304.423
304.399
304.338
304.226
304.413
304.388
304.324
304.211
304.427
304.403
304.341
304.228
304.421
304.394
304.33
304.216
304.433
304.407
304.348
304.238
304.436
304.407
304.344
304.231
304.434
304.402
304.334
304.219
304.44
304.405
304.334
304.218
304.447
304.416
304.355
304.243
304.445
304.412
304.356
304.255
304.437
304.409
304.354
304.25
304.434
304.404
304.352
304.257
304.455
304.421
304.355
304.239
304.454
304.419
304.359
304.256
304.463
304.426
304.357
304.242
304.463
304.424
304.363
304.26
304.421
304.4
304.344
304.239
304.406
304.389
304.341
304.249
304.422
304.401
304.346
304.241
304.407
304.389
304.341
304.25
304.424
304.401
304.348
304.246
304.41
304.39
304.342
304.252
304.424
304.4
304.349
304.253
304.413
304.391
304.344
304.256
304.423
304.396
304.348
304.26
304.384
304.37
304.327
304.261
304.359
304.347
304.303
304.241
304.387
304.371
304.328
304.262
304.362
304.348
304.304
304.241
304.392
304.374
304.33
304.263
304.367
304.35
304.305
304.243
304.399
304.378
304.333
304.266
304.374
304.354
304.307
304.244
304.409
304.383
304.336
304.269
304.382
304.358
304.309
304.246
304.427
304.393
304.341
304.271
304.403
304.37
304.317
304.251
304.418
304.388
304.339
304.27
304.392
304.364
304.313
304.248
304.435
304.398
304.344
304.272
304.412
304.376
304.32
304.253
304.443
304.403
304.347
304.275
304.421
304.381
304.324
304.256
304.055
303.918
303.801
303.706
303.633
304.047
303.911
303.794
303.699
303.626
304.056
303.918
303.801
303.706
303.633
304.048
303.912
303.795
303.7
303.627
304.058
303.919
303.802
303.706
303.633
304.054
303.917
303.8
303.705
303.631
304.051
303.914
303.796
303.701
303.628
304.053
303.915
303.797
303.702
303.628
304.059
303.92
303.802
303.707
303.633
304.052
303.91
303.792
303.696
303.623
304.058
303.917
303.8
303.704
303.631
304.05
303.907
303.789
303.694
303.621
304.06
303.92
303.802
303.706
303.633
304.052
303.909
303.79
303.695
303.622
304.062
303.921
303.803
303.707
303.634
304.052
303.908
303.79
303.694
303.621
304.054
303.915
303.797
303.702
303.629
304.044
303.902
303.785
303.69
303.617
304.054
303.914
303.797
303.702
303.629
304.044
303.902
303.785
303.69
303.617
304.054
303.913
303.796
303.7
303.627
304.044
303.902
303.784
303.689
303.616
304.051
303.909
303.791
303.696
303.623
304.042
303.9
303.782
303.687
303.614
304.045
303.902
303.784
303.689
303.616
303.47
303.447
303.48
303.457
303.498
303.473
303.521
303.492
303.545
303.511
303.582
303.542
303.563
303.524
303.6
303.562
303.62
303.585
303.229
302.966
302.746
302.575
302.459
303.233
302.968
302.745
302.573
302.455
303.233
302.968
302.747
302.576
302.46
303.237
302.97
302.747
302.574
302.456
303.243
302.974
302.751
302.578
302.462
303.246
302.975
302.75
302.576
302.458
303.255
302.981
302.756
302.582
302.465
303.257
302.981
302.754
302.579
302.461
303.269
302.99
302.762
302.587
302.469
303.269
302.989
302.76
302.584
302.464
303.3
303.013
302.779
302.601
302.481
303.297
303.01
302.775
302.596
302.475
303.285
303.001
302.77
302.593
302.474
303.282
302.999
302.767
302.589
302.469
303.316
303.025
302.788
302.608
302.488
303.314
303.023
302.785
302.604
302.483
303.332
303.038
302.798
302.616
302.495
303.332
303.037
302.796
302.613
302.491
304.344
304.309
304.279
304.319
304.266
304.271
304.273
304.281
304.262
304.272
304.215
304.227
304.191
304.204
304.226
304.237
304.239
304.247
304.242
304.248
304.316
304.324
304.217
304.175
304.162
304.158
304.196
304.218
304.169
304.225
304.127
304.064
304.214
304.196
304.147
304.2
304.179
304.175
304.258
304.261
304.233
304.243
304.255
304.265
304.253
304.238
304.183
304.193
304.214
304.224
304.299
304.312
304.288
304.299
304.282
304.279
304.25
304.213
304.251
304.379
304.412
304.425
304.424
304.406
304.372
304.399
304.41
304.406
304.382
304.249
304.264
304.265
304.252
304.225
304.205
304.219
304.219
304.205
304.178
304.193
304.207
304.207
304.194
304.167
304.188
304.201
304.202
304.188
304.16
304.228
304.242
304.243
304.23
304.202
304.287
304.329
304.351
304.355
304.342
304.243
304.288
304.311
304.316
304.301
304.275
304.306
304.323
304.322
304.3
304.195
304.238
304.26
304.262
304.244
304.131
304.175
304.196
304.199
304.18
304.252
304.275
304.284
304.277
304.253
304.241
304.27
304.284
304.281
304.258
304.191
304.218
304.232
304.228
304.205
304.236
304.256
304.263
304.254
304.229
304.217
304.239
304.248
304.241
304.217
304.21
304.229
304.235
304.226
304.201
304.321
304.357
304.375
304.376
304.361
304.304
304.33
304.343
304.339
304.316
304.27
304.291
304.298
304.29
304.264
304.278
304.297
304.302
304.292
304.266
304.293
304.315
304.323
304.315
304.29
304.301
304.321
304.327
304.317
304.292
304.287
304.303
304.307
304.296
304.269
304.271
304.287
304.291
304.279
304.253
304.216
304.232
304.235
304.224
304.197
304.225
304.24
304.242
304.23
304.203
304.248
304.266
304.271
304.261
304.235
304.257
304.274
304.278
304.267
304.24
304.36
304.394
304.408
304.408
304.391
304.356
304.381
304.392
304.387
304.363
304.339
304.369
304.383
304.381
304.362
304.338
304.36
304.369
304.361
304.336
304.32
304.34
304.347
304.338
304.313
304.322
304.347
304.359
304.354
304.331
304.283
304.301
304.304
304.293
304.267
304.245
304.26
304.262
304.25
304.223
304.285
304.304
304.308
304.298
304.272
304.323
304.304
304.322
304.3
304.37
304.347
304.37
304.35
304.32
304.317
304.299
304.303
304.369
304.368
304.348
304.354
304.274
304.227
304.257
304.211
304.274
304.231
304.254
304.211
304.253
304.271
304.263
304.275
304.237
304.219
304.274
304.252
304.283
304.259
304.321
304.298
304.334
304.312
304.228
304.205
304.242
304.215
304.194
304.165
304.183
304.145
304.17
304.133
304.186
304.141
304.169
304.129
304.194
304.133
304.182
304.127
304.158
304.103
304.126
304.069
304.302
304.29
304.292
304.278
304.363
304.359
304.353
304.349
304.235
304.2
304.244
304.212
304.277
304.264
304.256
304.247
304.337
304.336
304.318
304.32
304.219
304.185
304.196
304.166
304.175
304.107
304.118
304.041
304.181
304.108
304.128
304.048
304.159
304.094
304.104
304.029
304.136
304.072
304.084
304.011
304.18
304.158
304.138
304.103
304.183
304.165
304.131
304.098
304.19
304.18
304.12
304.093
304.305
304.368
304.243
304.178
304.094
304.37
304.31
304.249
304.179
304.079
304.364
304.297
304.219
304.135
304.047
304.122
304.106
304.011
303.978
304.139
304.122
304.017
303.985
304.164
304.15
304.025
303.993
304.369
304.36
304.305
304.294
304.238
304.228
304.158
304.144
304.015
303.98
304.364
304.355
304.29
304.268
304.206
304.178
304.108
304.074
303.976
303.934
304.272
304.234
304.262
304.223
304.357
304.353
304.348
304.346
304.167
304.111
304.179
304.127
304.253
304.208
304.236
304.188
304.337
304.333
304.322
304.316
304.158
304.095
304.138
304.072
304.053
303.981
303.909
303.818
304.072
304.002
303.935
303.85
304.038
303.964
303.886
303.793
304.024
303.945
303.874
303.782
304.099
304.085
303.999
303.997
304.116
304.1
304.004
304.003
304.14
304.117
304.008
304.006
304.341
304.308
304.274
304.244
304.21
304.184
304.13
304.105
304
304
304.336
304.301
304.238
304.205
304.151
304.127
304.064
304.053
303.974
303.98
304.446
304.447
304.426
304.434
304.412
304.413
304.391
304.399
304.47
304.487
304.451
304.469
304.47
304.486
304.449
304.466
304.452
304.47
304.455
304.468
304.482
304.465
304.416
304.393
304.381
304.359
304.428
304.402
304.435
304.413
304.441
304.418
304.498
304.504
304.48
304.487
304.497
304.506
304.479
304.488
304.496
304.507
304.482
304.495
304.46
304.476
304.44
304.459
304.453
304.455
304.444
304.448
304.414
304.415
304.404
304.406
304.47
304.476
304.479
304.481
304.43
304.438
304.413
304.425
304.39
304.395
304.372
304.381
304.457
304.467
304.442
304.456
304.489
304.502
304.492
304.498
304.497
304.507
304.496
304.501
304.477
304.493
304.484
304.493
304.462
304.481
304.474
304.484
304.506
304.502
304.511
304.506
304.504
304.501
304.51
304.505
304.5
304.498
304.509
304.504
304.457
304.419
304.482
304.499
304.506
304.418
304.455
304.48
304.496
304.503
304.419
304.457
304.483
304.497
304.501
304.49
304.467
304.49
304.466
304.49
304.469
304.492
304.469
304.489
304.471
304.493
304.472
304.418
304.41
304.455
304.444
304.477
304.464
304.491
304.475
304.494
304.475
304.421
304.418
304.459
304.454
304.482
304.473
304.493
304.479
304.494
304.475
304.46
304.461
304.452
304.457
304.421
304.425
304.411
304.421
304.476
304.473
304.482
304.477
304.439
304.448
304.427
304.434
304.398
304.41
304.384
304.396
304.465
304.465
304.454
304.452
304.487
304.476
304.486
304.467
304.492
304.479
304.491
304.471
304.479
304.469
304.479
304.46
304.469
304.458
304.471
304.451
304.44
304.415
304.432
304.401
304.444
304.416
304.434
304.402
304.447
304.416
304.438
304.401
304.391
304.358
304.424
304.39
304.442
304.408
304.451
304.416
304.441
304.398
304.403
304.365
304.436
304.396
304.45
304.409
304.451
304.408
304.437
304.388
304.489
304.444
304.369
304.246
304.473
304.429
304.352
304.23
304.49
304.445
304.37
304.247
304.475
304.431
304.355
304.233
304.491
304.446
304.375
304.256
304.481
304.438
304.365
304.246
304.464
304.423
304.349
304.229
304.452
304.412
304.34
304.222
304.486
304.443
304.373
304.256
304.479
304.435
304.372
304.267
304.489
304.445
304.378
304.267
304.48
304.436
304.374
304.273
304.48
304.438
304.367
304.248
304.475
304.433
304.369
304.264
304.472
304.432
304.361
304.245
304.47
304.429
304.366
304.263
304.494
304.449
304.378
304.261
304.487
304.442
304.378
304.274
304.493
304.448
304.378
304.262
304.486
304.441
304.377
304.274
304.491
304.446
304.378
304.266
304.484
304.439
304.376
304.275
304.486
304.441
304.378
304.272
304.481
304.436
304.374
304.276
304.479
304.434
304.374
304.278
304.47
304.426
304.365
304.29
304.448
304.404
304.342
304.272
304.47
304.426
304.365
304.29
304.448
304.404
304.342
304.272
304.47
304.425
304.364
304.289
304.448
304.403
304.341
304.271
304.47
304.424
304.364
304.289
304.447
304.402
304.34
304.27
304.468
304.423
304.364
304.29
304.446
304.4
304.339
304.269
304.461
304.417
304.358
304.285
304.441
304.396
304.335
304.266
304.466
304.42
304.361
304.287
304.445
304.399
304.338
304.268
304.456
304.412
304.354
304.281
304.436
304.391
304.332
304.263
304.45
304.408
304.351
304.278
304.429
304.386
304.328
304.259
304.067
303.925
303.805
303.709
303.635
304.058
303.918
303.799
303.702
303.628
304.067
303.925
303.805
303.709
303.635
304.058
303.918
303.799
303.702
303.629
304.068
303.925
303.805
303.709
303.635
304.063
303.922
303.803
303.707
303.633
304.057
303.917
303.798
303.702
303.629
304.055
303.916
303.798
303.702
303.629
304.067
303.925
303.805
303.709
303.635
304.059
303.914
303.794
303.698
303.624
304.067
303.923
303.803
303.707
303.633
304.058
303.912
303.792
303.696
303.623
304.065
303.923
303.804
303.708
303.634
304.056
303.911
303.792
303.696
303.622
304.063
303.922
303.804
303.708
303.634
304.054
303.909
303.79
303.695
303.621
304.067
303.922
303.802
303.705
303.632
304.057
303.91
303.79
303.693
303.62
304.066
303.922
303.801
303.705
303.631
304.057
303.91
303.79
303.693
303.619
304.065
303.92
303.8
303.703
303.629
304.056
303.909
303.788
303.692
303.618
304.061
303.915
303.795
303.698
303.625
304.053
303.906
303.786
303.689
303.616
304.054
303.908
303.788
303.692
303.618
303.777
303.751
303.773
303.747
303.765
303.738
303.752
303.726
303.731
303.708
303.678
303.648
303.702
303.676
303.657
303.625
303.638
303.605
303.452
303.125
302.864
302.668
302.54
303.459
303.129
302.864
302.667
302.537
303.449
303.123
302.862
302.667
302.539
303.455
303.126
302.863
302.665
302.535
303.442
303.118
302.859
302.665
302.537
303.449
303.121
302.859
302.663
302.533
303.432
303.111
302.854
302.661
302.533
303.439
303.115
302.855
302.659
302.53
303.417
303.101
302.847
302.655
302.528
303.427
303.107
302.849
302.655
302.526
303.382
303.077
302.829
302.641
302.516
303.388
303.081
302.83
302.64
302.514
303.4
303.09
302.838
302.648
302.523
303.409
303.095
302.841
302.648
302.521
303.365
303.064
302.819
302.633
302.509
303.368
303.066
302.819
302.631
302.507
303.348
303.05
302.808
302.624
302.502
303.35
303.051
302.808
302.622
302.499
304.373
304.34
304.364
304.399
304.445
304.426
304.446
304.424
304.411
304.388
304.412
304.392
304.019
304.025
304.04
304.064
304.097
304.136
304.017
304.022
304.037
304.059
304.089
304.124
304.003
303.981
304.01
303.988
304.027
304.008
304.055
304.039
304.091
304.08
304.134
304.121
304.178
304.218
304.253
304.282
304.303
304.319
304.162
304.198
304.231
304.258
304.28
304.295
304.047
304.058
304.056
304.041
304.013
304.053
304.064
304.062
304.047
304.019
304.068
304.08
304.078
304.063
304.035
304.093
304.104
304.103
304.088
304.06
304.126
304.138
304.137
304.122
304.094
304.166
304.178
304.178
304.163
304.135
304.045
304.056
304.054
304.039
304.011
304.05
304.062
304.06
304.045
304.017
304.065
304.076
304.075
304.06
304.032
304.088
304.1
304.098
304.083
304.055
304.118
304.13
304.129
304.115
304.087
304.154
304.166
304.166
304.152
304.124
304.031
304.042
304.041
304.026
303.997
304.008
304.019
304.017
304.003
303.975
304.038
304.049
304.048
304.033
304.005
304.016
304.027
304.026
304.011
303.983
304.056
304.067
304.065
304.05
304.022
304.036
304.047
304.045
304.03
304.002
304.083
304.095
304.093
304.078
304.05
304.068
304.079
304.078
304.063
304.035
304.12
304.132
304.131
304.117
304.089
304.109
304.121
304.119
304.105
304.077
304.164
304.176
304.176
304.161
304.133
304.151
304.164
304.163
304.149
304.121
304.209
304.222
304.222
304.209
304.181
304.25
304.265
304.266
304.253
304.226
304.286
304.303
304.306
304.294
304.267
304.317
304.336
304.341
304.331
304.305
304.341
304.362
304.369
304.361
304.335
304.359
304.381
304.389
304.381
304.356
304.192
304.205
304.206
304.192
304.164
304.229
304.244
304.245
304.232
304.205
304.263
304.279
304.282
304.27
304.243
304.293
304.31
304.314
304.303
304.276
304.315
304.334
304.339
304.329
304.303
304.331
304.351
304.356
304.347
304.321
304.022
304.034
304.056
304.086
304.125
304.171
304.02
304.032
304.052
304.081
304.117
304.157
304.007
303.984
304.02
303.999
304.044
304.025
304.078
304.064
304.121
304.111
304.172
304.162
304.22
304.264
304.299
304.322
304.331
304.329
304.199
304.238
304.269
304.291
304.302
304.303
304.05
304.061
304.059
304.044
304.016
304.062
304.074
304.072
304.057
304.028
304.084
304.095
304.094
304.079
304.05
304.115
304.126
304.125
304.11
304.081
304.154
304.166
304.165
304.15
304.121
304.201
304.213
304.212
304.197
304.169
304.048
304.059
304.057
304.042
304.014
304.06
304.071
304.069
304.054
304.026
304.081
304.092
304.09
304.075
304.047
304.11
304.121
304.12
304.105
304.076
304.146
304.158
304.156
304.141
304.113
304.187
304.199
304.198
304.184
304.155
304.035
304.046
304.044
304.029
304.001
304.012
304.023
304.021
304.006
303.978
304.048
304.059
304.057
304.042
304.014
304.027
304.038
304.036
304.021
303.993
304.072
304.083
304.081
304.066
304.038
304.053
304.064
304.062
304.047
304.019
304.106
304.118
304.116
304.101
304.073
304.092
304.103
304.102
304.087
304.059
304.15
304.162
304.161
304.146
304.117
304.14
304.152
304.15
304.135
304.107
304.201
304.213
304.212
304.197
304.169
304.191
304.203
304.202
304.187
304.159
304.25
304.263
304.262
304.248
304.22
304.295
304.309
304.309
304.296
304.268
304.331
304.347
304.349
304.336
304.309
304.357
304.374
304.378
304.367
304.34
304.369
304.389
304.395
304.385
304.359
304.368
304.39
304.398
304.39
304.365
304.229
304.242
304.242
304.228
304.2
304.269
304.283
304.283
304.27
304.242
304.302
304.317
304.318
304.306
304.278
304.325
304.342
304.345
304.333
304.306
304.337
304.355
304.36
304.349
304.323
304.339
304.358
304.364
304.354
304.328
304.334
304.338
304.269
304.22
304.217
304.206
304.251
304.364
304.35
304.357
304.317
304.321
304.328
304.296
304.29
304.271
304.366
304.362
304.326
304.322
304.344
304.338
304.31
304.304
304.26
304.259
304.297
304.297
304.351
304.35
304.366
304.352
304.347
304.362
304.314
304.274
304.323
304.396
304.427
304.44
304.437
304.418
304.385
304.411
304.422
304.417
304.393
304.3
304.314
304.314
304.301
304.272
304.25
304.263
304.262
304.248
304.219
304.248
304.261
304.26
304.246
304.218
304.235
304.248
304.247
304.233
304.205
304.281
304.295
304.295
304.281
304.252
304.419
304.447
304.458
304.453
304.434
304.403
304.43
304.44
304.434
304.413
304.398
304.42
304.428
304.42
304.395
304.365
304.388
304.396
304.389
304.365
304.355
304.372
304.376
304.365
304.337
304.365
304.385
304.391
304.381
304.355
304.329
304.345
304.347
304.335
304.307
304.324
304.34
304.343
304.332
304.304
304.304
304.319
304.321
304.308
304.281
304.42
304.448
304.458
304.454
304.434
304.401
304.421
304.428
304.419
304.394
304.36
304.377
304.38
304.368
304.341
304.356
304.372
304.374
304.362
304.334
304.379
304.397
304.401
304.39
304.363
304.372
304.389
304.392
304.38
304.353
304.343
304.358
304.36
304.347
304.319
304.336
304.351
304.352
304.339
304.311
304.291
304.306
304.306
304.293
304.265
304.29
304.304
304.304
304.291
304.262
304.329
304.345
304.346
304.334
304.306
304.329
304.344
304.345
304.332
304.304
304.409
304.438
304.45
304.446
304.426
304.392
304.416
304.425
304.418
304.393
304.413
304.438
304.447
304.441
304.419
304.39
304.41
304.416
304.407
304.381
304.382
304.4
304.405
304.394
304.367
304.401
304.423
304.43
304.421
304.396
304.346
304.362
304.364
304.351
304.323
304.305
304.319
304.32
304.306
304.278
304.356
304.372
304.374
304.362
304.334
304.308
304.335
304.346
304.342
304.324
304.289
304.33
304.327
304.377
304.378
304.325
304.321
304.375
304.373
304.279
304.226
304.278
304.231
304.273
304.276
304.239
304.331
304.329
304.379
304.38
304.326
304.322
304.377
304.374
304.276
304.22
304.276
304.226
304.271
304.275
304.236
304.331
304.328
304.379
304.381
304.325
304.321
304.377
304.373
304.274
304.206
304.273
304.214
304.269
304.273
304.225
304.321
304.318
304.371
304.372
304.315
304.31
304.368
304.364
304.26
304.189
304.26
304.197
304.256
304.261
304.211
304.303
304.301
304.353
304.355
304.298
304.292
304.351
304.347
304.243
304.176
304.243
304.183
304.24
304.243
304.196
304.272
304.27
304.321
304.323
304.268
304.262
304.319
304.315
304.215
304.153
304.216
304.16
304.213
304.217
304.173
304.453
304.453
304.419
304.419
304.452
304.452
304.418
304.417
304.477
304.496
304.476
304.493
304.476
304.472
304.487
304.455
304.455
304.421
304.422
304.454
304.452
304.42
304.418
304.481
304.496
304.479
304.492
304.477
304.473
304.486
304.456
304.456
304.422
304.423
304.453
304.451
304.42
304.417
304.479
304.489
304.477
304.486
304.474
304.469
304.48
304.448
304.447
304.414
304.415
304.444
304.441
304.411
304.409
304.468
304.473
304.465
304.47
304.461
304.456
304.465
304.429
304.428
304.396
304.397
304.424
304.42
304.393
304.39
304.448
304.45
304.445
304.447
304.44
304.434
304.443
304.396
304.394
304.363
304.364
304.391
304.387
304.36
304.357
304.413
304.419
304.411
304.416
304.407
304.402
304.412
304.045
304.054
304.071
304.085
304.107
304.121
304.157
304.169
304.147
304.16
304.108
304.121
304.079
304.092
304.056
304.065
304.118
304.136
304.142
304.167
304.179
304.202
304.201
304.231
304.014
303.962
304.023
303.975
304.038
303.988
304.053
304.006
304.09
304.062
304.115
304.08
304.019
304.048
304.172
304.216
304.196
304.229
304.228
304.265
304.257
304.285
304.12
304.166
304.146
304.181
304.078
304.123
303.903
303.868
303.927
303.891
303.929
303.884
303.958
303.917
303.965
303.905
304.01
303.955
304.045
303.99
304.085
304.029
304.132
304.14
304.17
304.174
304.212
304.223
304.243
304.253
304.1
304.089
304.055
304.053
304.203
304.202
304.232
304.226
304.271
304.279
304.297
304.301
304.137
304.12
304.169
304.144
304.031
303.963
304.005
303.93
303.982
303.913
303.967
303.889
304.071
304.005
304.037
303.963
304.106
304.042
304.062
303.989
303.819
303.741
303.806
303.729
303.843
303.771
303.819
303.746
303.882
303.827
303.841
303.781
304.077
304.173
303.991
303.926
303.855
304.159
304.058
303.955
303.886
303.809
304.184
304.094
304.007
303.925
303.845
303.67
303.634
303.631
303.6
303.707
303.666
303.656
303.622
303.77
303.724
303.698
303.658
304.137
304.1
304.027
303.976
303.925
303.873
303.844
303.793
303.738
303.686
304.167
304.137
304.067
304.015
303.973
303.913
303.879
303.815
303.761
303.694
304.114
304.055
304.156
304.104
304.213
304.195
304.251
304.241
304.056
303.988
304.015
303.942
304.192
304.14
304.216
304.166
304.281
304.272
304.303
304.296
304.094
304.024
304.117
304.049
303.943
303.86
303.803
303.702
303.909
303.822
303.78
303.682
303.973
303.893
303.824
303.725
304.002
303.921
303.854
303.761
303.623
303.608
303.579
303.617
303.61
303.584
303.647
303.628
303.597
303.635
303.626
303.598
303.695
303.669
303.635
303.661
303.649
303.617
304.054
304.002
303.947
303.923
303.877
303.829
303.823
303.784
303.742
303.752
303.719
303.679
303.682
303.665
303.628
304.095
304.037
303.974
303.945
303.884
303.823
303.842
303.789
303.734
303.76
303.719
303.671
303.684
303.661
303.618
304.288
304.306
304.304
304.328
304.239
304.262
304.258
304.286
304.297
304.335
304.301
304.337
304.308
304.343
304.317
304.349
304.343
304.327
304.353
304.334
304.35
304.363
304.347
304.369
304.309
304.334
304.354
304.375
304.369
304.389
304.371
304.391
304.374
304.408
304.367
304.399
304.379
304.414
304.378
304.41
304.384
304.422
304.393
304.428
304.4
304.431
304.418
304.443
304.331
304.347
304.353
304.371
304.28
304.294
304.305
304.32
304.386
304.408
304.367
304.387
304.374
304.391
304.395
304.41
304.329
304.343
304.352
304.363
304.405
304.426
304.424
304.442
304.414
304.444
304.432
304.45
304.399
304.431
304.414
304.435
304.429
304.456
304.448
304.463
304.446
304.468
304.462
304.475
304.372
304.355
304.405
304.387
304.373
304.355
304.407
304.389
304.374
304.358
304.411
304.395
304.315
304.254
304.353
304.383
304.416
304.241
304.302
304.337
304.367
304.401
304.265
304.325
304.367
304.396
304.42
304.326
304.286
304.358
304.319
304.329
304.291
304.362
304.325
304.335
304.299
304.371
304.336
304.225
304.194
304.289
304.257
304.325
304.293
304.353
304.32
304.386
304.352
304.255
304.237
304.316
304.298
304.357
304.335
304.384
304.357
304.404
304.371
304.351
304.344
304.375
304.375
304.295
304.29
304.324
304.328
304.407
304.399
304.387
304.372
304.394
304.398
304.411
304.418
304.347
304.355
304.367
304.378
304.424
304.42
304.44
304.438
304.427
304.41
304.437
304.409
304.408
304.386
304.422
304.391
304.443
304.43
304.449
304.426
304.456
304.445
304.461
304.44
304.232
304.178
304.127
304.252
304.191
304.14
304.239
304.185
304.133
304.26
304.199
304.146
304.25
304.197
304.144
304.275
304.211
304.154
304.152
304.101
304.045
304.215
304.161
304.104
304.249
304.193
304.135
304.274
304.218
304.162
304.291
304.223
304.161
304.204
304.147
304.084
304.262
304.205
304.141
304.295
304.234
304.168
304.31
304.246
304.179
304.306
304.235
304.167
304.422
304.399
304.338
304.226
304.412
304.387
304.324
304.211
304.427
304.403
304.341
304.228
304.421
304.394
304.33
304.216
304.433
304.407
304.348
304.238
304.436
304.407
304.344
304.231
304.434
304.402
304.334
304.219
304.44
304.405
304.334
304.218
304.447
304.416
304.355
304.243
304.445
304.412
304.356
304.255
304.437
304.409
304.354
304.25
304.434
304.404
304.352
304.257
304.455
304.421
304.355
304.239
304.454
304.419
304.359
304.256
304.463
304.426
304.357
304.242
304.463
304.424
304.363
304.26
304.421
304.4
304.344
304.239
304.406
304.389
304.341
304.249
304.422
304.401
304.346
304.241
304.407
304.389
304.341
304.25
304.424
304.401
304.348
304.246
304.41
304.39
304.342
304.252
304.424
304.4
304.349
304.253
304.413
304.391
304.344
304.256
304.423
304.396
304.348
304.26
304.384
304.37
304.327
304.261
304.359
304.347
304.303
304.241
304.387
304.371
304.328
304.262
304.362
304.348
304.304
304.241
304.392
304.374
304.33
304.263
304.367
304.35
304.305
304.243
304.399
304.378
304.333
304.266
304.374
304.354
304.307
304.244
304.409
304.383
304.336
304.269
304.382
304.358
304.309
304.246
304.427
304.393
304.341
304.271
304.403
304.37
304.317
304.251
304.418
304.388
304.339
304.27
304.392
304.364
304.313
304.248
304.435
304.398
304.344
304.272
304.412
304.376
304.32
304.253
304.443
304.403
304.347
304.275
304.421
304.381
304.324
304.256
304.055
303.918
303.801
303.706
303.633
304.046
303.911
303.794
303.699
303.626
304.056
303.918
303.801
303.706
303.633
304.048
303.912
303.795
303.7
303.627
304.058
303.919
303.802
303.706
303.633
304.054
303.917
303.8
303.705
303.631
304.051
303.914
303.796
303.701
303.628
304.053
303.915
303.797
303.702
303.628
304.059
303.92
303.802
303.707
303.633
304.052
303.91
303.792
303.696
303.623
304.058
303.917
303.8
303.704
303.631
304.05
303.907
303.789
303.694
303.621
304.06
303.92
303.802
303.706
303.633
304.052
303.909
303.79
303.695
303.622
304.062
303.921
303.803
303.707
303.634
304.052
303.908
303.79
303.694
303.621
304.054
303.915
303.797
303.702
303.629
304.044
303.902
303.785
303.69
303.617
304.054
303.914
303.797
303.702
303.629
304.044
303.902
303.785
303.69
303.617
304.054
303.913
303.796
303.7
303.627
304.044
303.902
303.784
303.689
303.616
304.051
303.909
303.791
303.696
303.623
304.042
303.9
303.782
303.687
303.614
304.045
303.902
303.785
303.689
303.616
303.469
303.447
303.48
303.457
303.498
303.473
303.521
303.492
303.545
303.511
303.582
303.542
303.563
303.524
303.6
303.562
303.62
303.585
303.229
302.966
302.746
302.575
302.458
303.232
302.968
302.745
302.573
302.455
303.233
302.968
302.747
302.576
302.46
303.237
302.97
302.747
302.574
302.456
303.242
302.974
302.751
302.578
302.462
303.245
302.975
302.75
302.576
302.458
303.255
302.981
302.756
302.582
302.465
303.257
302.981
302.754
302.579
302.461
303.269
302.99
302.762
302.587
302.469
303.269
302.989
302.76
302.584
302.464
303.3
303.013
302.779
302.6
302.481