/*--------------------------------*- C++ -*----------------------------------*\
  =========                 |
  \\      /  F ield         | OpenFOAM: The Open Source CFD Toolbox
   \\    /   O peration     | Website:  https://openfoam.org
    \\  /    A nd           | Version:  13
     \\/     M anipulation  |
\*---------------------------------------------------------------------------*/
FoamFile
{
    format      ascii;
    class       volScalarField;
    location    "454.831886";
    object      T;
}
// * * * * * * * * * * * * * * * * * * * * * * * * * * * * * * * * * * * * * //

dimensions      [0 0 0 1 0 0 0];

internalField   nonuniform List<scalar> 
5712
(
447.205
447.528
448.059
448.555
449.314
449.823
451.023
451.443
450.638
451.127
449.294
449.783
448.302
448.76
447.548
447.894
449.741
450.401
450.609
451.52
451.826
452.665
452.633
453.705
446.136
444.365
446.479
444.818
446.949
445.25
447.484
445.874
448.809
447.821
449.721
448.47
446.341
447.383
451.682
453.276
452.577
453.771
453.591
454.949
454.649
455.684
449.883
451.533
450.838
452.094
448.434
450.032
442.332
441.104
443.176
441.895
443.224
441.681
444.226
442.801
444.525
442.443
446.091
444.144
447.322
445.391
448.745
446.776
450.269
450.568
451.648
451.806
453.034
453.401
454.152
454.518
449.228
448.912
447.627
447.605
452.823
452.838
453.893
453.699
455.163
455.461
456.116
456.268
450.549
450
451.731
450.887
446.846
444.51
446.035
443.437
445.138
442.761
444.681
441.994
448.269
445.986
447.155
444.598
449.542
447.283
448.046
445.522
439.435
436.78
438.995
436.374
440.256
437.771
439.452
436.944
441.638
439.712
440.23
438.159
448.338
451.583
445.386
443.168
440.757
451.078
447.648
444.121
441.757
439.175
451.997
448.942
445.987
443.192
440.449
434.33
433.073
433.056
431.945
435.563
434.121
433.893
432.694
437.723
436.101
435.34
433.914
450.251
448.887
446.51
444.694
443.055
441.187
440.316
438.481
436.729
434.92
451.377
450.263
447.957
446.08
444.758
442.642
441.585
439.322
437.606
435.256
449.655
447.572
451.17
449.317
453.019
452.328
454.387
453.95
447.762
445.355
446.287
443.727
452.457
450.602
453.303
451.533
455.493
455.075
456.298
455.963
449.101
446.652
449.952
447.561
443.897
441.033
439.142
435.721
442.7
439.684
438.323
434.955
444.993
442.223
439.916
436.556
446.026
443.227
440.987
437.803
432.581
431.944
430.888
432.368
432.026
431.053
433.373
432.606
431.484
432.971
432.571
431.521
435.003
434.019
432.763
433.89
433.335
432.153
447.213
445.319
443.324
442.737
441.068
439.305
439.375
437.917
436.36
436.979
435.731
434.245
434.63
433.888
432.503
448.695
446.559
444.29
443.559
441.338
439.111
440.081
438.098
436.097
437.285
435.74
433.962
434.694
433.75
432.149
455.523
456.208
456.143
457.03
453.855
454.695
454.561
455.607
455.749
457.071
455.923
457.149
456.175
457.349
456.478
457.575
457.468
456.872
457.861
457.154
457.64
458.135
457.734
458.554
456.452
457.356
457.883
458.678
458.44
459.187
458.437
459.212
458.411
459.592
458.189
459.282
458.614
459.822
458.572
459.672
458.822
460.128
459.177
460.348
459.447
460.457
460.107
460.914
457.08
457.664
457.896
458.542
455.329
455.833
456.271
456.814
459.023
459.792
458.301
459.016
458.686
459.301
459.468
459.968
457.158
457.657
458.015
458.396
459.722
460.465
460.442
461.061
459.96
460.953
460.597
461.158
459.374
460.459
459.918
460.589
460.536
461.394
461.192
461.65
461.166
461.865
461.715
462.078
458.295
457.647
459.439
458.779
458.334
457.651
459.536
458.851
458.4
457.785
459.693
459.08
456.439
454.352
457.744
458.785
459.883
453.884
455.944
457.143
458.166
459.344
454.777
456.813
458.275
459.254
460.026
456.567
455.1
457.69
456.265
456.669
455.265
457.872
456.503
456.922
455.588
458.223
456.944
453.26
452.11
455.447
454.272
456.686
455.483
457.647
456.425
458.762
457.551
454.376
453.669
456.463
455.748
457.883
457.047
458.788
457.779
459.463
458.237
457.742
457.427
458.639
458.553
455.846
455.589
456.91
456.945
459.739
459.364
458.963
458.397
459.334
459.425
459.994
460.151
457.742
457.945
458.479
458.761
460.367
460.149
460.961
460.8
460.394
459.711
460.652
459.639
459.689
458.836
460.102
458.961
460.974
460.44
461.129
460.237
461.469
460.992
461.563
460.781
453.116
451.152
449.308
453.827
451.606
449.753
453.398
451.407
449.519
454.161
451.923
449.987
453.828
451.87
449.947
454.704
452.356
450.287
450.57
448.676
446.648
452.696
450.73
448.651
453.881
451.827
449.708
454.728
452.672
450.612
455.294
452.818
450.56
452.413
450.341
448.03
454.433
452.316
449.985
455.554
453.311
450.907
456.036
453.678
451.251
455.869
453.267
450.782
460.026
459.103
456.823
452.72
459.653
458.667
456.314
452.181
460.193
459.233
456.943
452.8
459.957
458.907
456.529
452.378
460.414
459.4
457.2
453.174
460.515
459.383
457.038
452.925
460.454
459.202
456.692
452.482
460.706
459.312
456.699
452.459
460.934
459.731
457.431
453.35
460.86
459.575
457.463
453.785
460.565
459.48
457.4
453.613
460.451
459.289
457.326
453.863
461.235
459.914
457.435
453.202
461.217
459.824
457.587
453.818
461.544
460.107
457.539
453.324
461.531
460.041
457.736
453.98
459.953
459.126
457.047
453.182
459.416
458.709
456.93
453.549
460.002
459.148
457.096
453.254
459.441
458.702
456.932
453.582
460.071
459.165
457.176
453.444
459.557
458.745
456.969
453.657
460.094
459.119
457.225
453.707
459.667
458.774
457.017
453.796
460.045
458.996
457.183
453.956
458.593
457.993
456.386
453.955
457.673
457.139
455.498
453.213
458.698
458.049
456.429
454.002
457.782
457.192
455.53
453.235
458.888
458.149
456.489
454.045
457.971
457.283
455.578
453.277
459.163
458.3
456.602
454.144
458.229
457.415
455.657
453.336
459.517
458.498
456.738
454.252
458.53
457.567
455.742
453.394
460.193
458.884
456.928
454.342
459.299
458.014
456.023
453.586
459.861
458.69
456.828
454.29
458.916
457.788
455.881
453.492
460.493
459.066
457.02
454.388
459.654
458.227
456.153
453.688
460.783
459.254
457.148
454.492
459.981
458.435
456.291
453.798
446.558
441.622
437.445
434.069
431.491
446.247
441.37
437.208
433.839
431.266
446.596
441.642
437.457
434.078
431.499
446.304
441.408
437.236
433.863
431.287
446.667
441.674
437.477
434.094
431.513
446.532
441.6
437.413
434.031
431.45
446.411
441.474
437.283
433.898
431.318
446.489
441.531
437.325
433.932
431.347
446.714
441.7
437.494
434.106
431.523
446.46
441.339
437.123
433.739
431.162
446.656
441.611
437.406
434.021
431.44
446.378
441.254
437.044
433.664
431.089
446.722
441.702
437.489
434.096
431.511
446.435
441.302
437.08
433.693
431.114
446.803
441.756
437.528
434.127
431.538
446.457
441.299
437.066
433.673
431.092
446.522
441.507
437.32
433.946
431.37
446.152
441.07
436.886
433.522
430.954
446.531
441.5
437.308
433.932
431.356
446.162
441.071
436.883
433.517
430.949
446.526
441.463
437.264
433.886
431.309
446.16
441.051
436.858
433.49
430.921
446.418
441.307
437.101
433.723
431.149
446.099
440.976
436.779
433.41
430.841
446.198
441.073
436.869
433.495
430.925
427.659
426.91
428.011
427.248
428.659
427.809
429.489
428.487
430.333
429.162
431.694
430.353
431.007
429.689
432.361
431.076
433.047
431.882
419.74
411.163
404.025
398.522
394.794
419.856
411.223
404.008
398.472
394.684
419.901
411.248
404.078
398.56
394.827
420.003
411.288
404.06
398.488
394.708
420.225
411.427
404.193
398.644
394.898
420.315
411.46
404.17
398.569
394.776
420.665
411.686
404.364
398.77
395.003
420.718
411.696
404.325
398.682
394.87
421.182
412.015
404.588
398.935
395.142
421.156
411.975
404.515
398.824
394.991
422.298
412.82
405.178
399.395
395.542
422.176
412.704
405.048
399.243
395.364
421.74
412.407
404.869
399.15
395.326
421.639
412.309
404.752
399.006
395.151
422.853
413.241
405.5
399.653
395.771
422.773
413.157
405.397
399.525
395.615
423.416
413.676
405.836
399.923
396.008
423.415
413.637
405.776
399.831
395.876
457.637
456.458
455.329
456.677
454.668
454.872
454.954
455.233
454.587
454.965
452.998
453.433
452.117
452.607
453.304
453.718
453.752
454.042
453.817
454.042
456.516
456.711
452.463
450.858
450.419
450.232
451.687
452.973
451.212
453.109
449.644
447.366
452.537
451.994
450.204
451.999
451.261
451.05
454.39
454.324
453.221
453.515
454.039
454.359
453.844
453.274
451.287
451.612
452.448
452.779
455.872
456.194
455.419
455.654
455.015
454.992
453.728
452.329
453.791
458.741
459.854
460.301
460.185
459.496
458.385
459.324
459.709
459.495
458.615
453.611
454.139
454.179
453.704
452.691
451.961
452.443
452.442
451.939
450.919
451.535
452.035
452.054
451.569
450.561
451.33
451.81
451.809
451.307
450.292
452.82
453.334
453.363
452.882
451.87
455.393
456.835
457.573
457.681
457.181
453.781
455.334
456.118
456.231
455.657
454.852
455.949
456.507
456.425
455.623
452.018
453.508
454.227
454.27
453.574
449.669
451.188
451.913
451.962
451.27
453.931
454.727
455.023
454.742
453.831
453.603
454.597
455.067
454.915
454.073
451.755
452.708
453.147
452.975
452.13
453.301
454.005
454.218
453.878
452.938
452.636
453.418
453.704
453.42
452.512
452.324
453.003
453.197
452.845
451.903
456.616
457.843
458.443
458.453
457.858
455.876
456.804
457.216
457.027
456.162
454.552
455.279
455.513
455.185
454.246
454.79
455.456
455.631
455.257
454.293
455.411
456.174
456.439
456.134
455.205
455.66
456.349
456.543
456.183
455.223
455.061
455.659
455.766
455.338
454.344
454.481
455.072
455.175
454.746
453.755
452.474
453.054
453.151
452.725
451.744
452.769
453.313
453.372
452.915
451.916
453.695
454.338
454.493
454.108
453.143
453.992
454.594
454.708
454.289
453.305
458.033
459.178
459.669
459.591
458.944
457.77
458.662
459.019
458.784
457.89
457.228
458.253
458.731
458.619
457.881
457.067
457.851
458.127
457.827
456.896
456.355
457.078
457.301
456.962
456.012
456.515
457.407
457.791
457.581
456.703
454.954
455.565
455.684
455.267
454.28
453.494
454.042
454.104
453.646
452.644
455.05
455.698
455.853
455.464
454.491
457.207
456.484
457.15
456.348
458.796
457.957
458.831
458.087
457.086
456.995
456.316
456.475
458.769
458.718
457.998
458.221
455.516
453.85
454.863
453.265
455.507
454.001
454.742
453.265
454.715
455.395
455.083
455.537
454.228
453.543
455.375
454.57
455.741
454.86
456.998
456.152
457.495
456.672
453.809
452.948
454.317
453.334
452.604
451.576
452.312
450.96
451.798
450.51
452.428
450.826
451.768
450.347
452.713
450.556
452.25
450.327
451.38
449.415
450.206
448.209
456.466
456.025
456.1
455.602
458.552
458.392
458.165
458.022
454.11
452.892
454.446
453.332
455.517
455.088
454.772
454.45
457.599
457.547
456.909
456.967
453.516
452.359
452.708
451.672
452.028
449.652
450.079
447.426
452.268
449.715
450.461
447.667
451.451
449.176
449.56
446.982
450.596
448.354
448.848
446.319
452.25
451.522
450.754
449.598
452.379
451.781
450.545
449.434
452.608
452.292
450.166
449.248
456.563
458.714
454.453
452.178
449.268
458.787
456.744
454.64
452.249
448.796
458.588
456.273
453.606
450.69
447.674
450.3
449.711
446.488
445.342
450.875
450.286
446.709
445.564
451.729
451.238
446.974
445.821
458.734
458.395
456.558
456.161
454.28
453.882
451.528
451.026
446.606
445.378
458.566
458.203
456.022
455.226
453.127
452.133
449.777
448.602
445.279
443.804
455.39
454.031
455.002
453.609
458.286
458.093
457.946
457.819
451.743
449.789
452.208
450.354
454.66
453.064
454.027
452.323
457.543
457.325
456.974
456.691
451.396
449.205
450.704
448.38
447.854
445.366
442.934
439.826
448.538
446.12
443.854
440.94
447.319
444.742
442.145
438.944
446.813
444.06
441.698
438.551
449.439
448.897
445.985
445.854
449.999
449.4
446.123
446.034
450.822
449.969
446.256
446.113
457.696
456.47
455.413
454.262
453.225
452.226
450.482
449.537
445.974
445.871
457.487
456.16
454.118
452.901
451.15
450.217
448.153
447.671
445.044
445.146
461.401
461.441
460.649
460.956
460.238
460.272
459.451
459.769
462.212
462.767
461.497
462.074
462.19
462.709
461.413
461.974
461.536
462.196
461.642
462.133
462.587
461.956
460.259
459.431
459.081
458.273
460.624
459.688
460.922
460.08
461.068
460.204
463.076
463.223
462.402
462.585
463.077
463.276
462.364
462.624
463.047
463.342
462.511
462.884
461.711
462.167
460.936
461.536
461.63
461.649
461.279
461.394
460.301
460.303
459.928
459.987
462.168
462.326
462.491
462.535
460.764
461.017
460.152
460.546
459.39
459.558
458.744
459.035
461.677
461.998
461.093
461.577
462.779
463.133
462.83
462.976
463.073
463.329
463.002
463.097
462.313
462.776
462.547
462.758
461.764
462.336
462.172
462.452
463.376
463.272
463.477
463.298
463.328
463.212
463.468
463.271
463.211
463.116
463.424
463.247
461.761
460.456
462.603
463.138
463.315
460.447
461.699
462.526
463.055
463.194
460.467
461.758
462.606
463.047
463.104
462.807
461.989
462.745
461.871
462.817
462.052
462.786
461.948
462.816
462.136
462.844
462.074
460.431
460.099
461.681
461.276
462.428
461.926
462.867
462.281
462.879
462.178
460.529
460.363
461.795
461.575
462.565
462.201
462.909
462.371
462.832
462.128
461.801
461.79
461.496
461.615
460.478
460.583
460.119
460.382
462.291
462.14
462.545
462.291
461.034
461.249
460.56
460.748
459.622
459.976
459.101
459.423
461.898
461.81
461.47
461.347
462.639
462.198
462.514
461.804
462.84
462.312
462.704
461.956
462.335
461.926
462.252
461.528
461.94
461.498
461.935
461.198
460.987
460.042
460.599
459.492
461.119
460.105
460.694
459.522
461.241
460.117
460.838
459.479
459.401
458.162
460.509
459.242
461.121
459.847
461.396
460.082
460.933
459.331
459.77
458.344
460.888
459.399
461.356
459.803
461.337
459.721
460.752
458.941
462.549
460.804
457.981
453.5
461.963
460.23
457.384
452.906
462.585
460.848
458.034
453.52
462.022
460.307
457.485
453.021
462.61
460.885
458.208
453.835
462.254
460.565
457.854
453.476
461.62
459.996
457.241
452.856
461.129
459.6
456.899
452.597
462.439
460.758
458.149
453.849
462.142
460.452
458.09
454.249
462.536
460.818
458.325
454.238
462.21
460.485
458.16
454.449
462.194
460.57
457.899
453.535
462.004
460.364
457.981
454.125
461.876
460.335
457.701
453.44
461.797
460.225
457.871
454.086
462.744
460.996
458.319
454.043
462.484
460.741
458.312
454.505
462.706
460.962
458.325
454.075
462.426
460.682
458.275
454.503
462.613
460.874
458.333
454.206
462.349
460.604
458.227
454.512
462.432
460.694
458.296
454.417
462.243
460.497
458.182
454.577
462.179
460.436
458.172
454.634
461.866
460.128
457.833
455.048
461.053
459.316
456.986
454.38
461.867
460.125
457.838
455.063
461.05
459.307
456.978
454.372
461.849
460.101
457.812
455.035
461.029
459.278
456.947
454.354
461.824
460.068
457.804
455.036
461.004
459.24
456.916
454.329
461.773
460.011
457.783
455.04
460.953
459.174
456.86
454.283
461.495
459.769
457.561
454.852
460.755
458.995
456.718
454.145
461.657
459.904
457.68
454.95
460.887
459.107
456.808
454.235
461.286
459.607
457.414
454.714
460.54
458.828
456.581
454.035
461.048
459.435
457.28
454.603
460.274
458.634
456.432
453.913
447.019
441.904
437.621
434.186
431.583
446.687
441.642
437.378
433.952
431.354
447.017
441.899
437.617
434.185
431.582
446.689
441.644
437.384
433.962
431.364
447.039
441.9
437.618
434.188
431.586
446.852
441.796
437.536
434.112
431.514
446.634
441.611
437.368
433.956
431.363
446.574
441.583
437.357
433.953
431.364
447.003
441.876
437.604
434.179
431.579
446.716
441.493
437.218
433.803
431.211
446.996
441.816
437.533
434.106
431.507
446.683
441.437
437.157
433.739
431.148
446.921
441.824
437.565
434.147
431.551
446.609
441.407
437.145
433.736
431.148
446.872
441.799
437.555
434.145
431.552
446.518
441.336
437.089
433.688
431.104
447.005
441.799
437.501
434.067
431.464
446.65
441.368
437.071
433.645
431.05
446.986
441.774
437.478
434.045
431.444
446.638
441.354
437.059
433.634
431.04
446.935
441.709
437.416
433.987
431.388
446.594
441.309
437.018
433.597
431.004
446.783
441.525
437.237
433.814
431.219
446.482
441.204
436.921
433.504
430.915
446.534
441.274
436.994
433.578
430.989
438.513
437.645
438.391
437.503
438.11
437.199
437.661
436.77
436.938
436.171
435.09
434.097
435.922
435.058
434.367
433.273
433.707
432.595
427.573
416.68
408.071
401.68
397.51
427.812
416.805
408.086
401.649
397.407
427.462
416.602
408.016
401.638
397.475
427.667
416.694
408.025
401.579
397.361
427.234
416.445
407.905
401.554
397.405
427.446
416.545
407.921
401.501
397.296
426.879
416.204
407.734
401.423
397.294
427.119
416.326
407.767
401.383
397.195
426.374
415.867
407.492
401.234
397.131
426.697
416.048
407.568
401.229
397.062
425.155
415.025
406.875
400.753
396.722
425.37
415.156
406.926
400.739
396.658
425.775
415.469
407.204
401.009
396.938
426.091
415.657
407.289
401.015
396.885
424.564
414.576
406.535
400.484
396.493
424.678
414.641
406.544
400.443
396.411
423.982
414.12
406.181
400.201
396.25
424.036
414.125
406.156
400.136
396.141
458.695
457.58
458.472
459.639
461.384
460.655
461.393
460.564
460.23
459.374
460.237
459.498
444.973
445.202
445.773
446.679
447.903
449.382
444.897
445.116
445.659
446.51
447.629
448.949
444.414
443.59
444.673
443.884
445.312
444.605
446.337
445.783
447.713
447.295
449.315
448.863
450.978
452.502
453.83
454.945
455.792
456.403
450.363
451.746
452.999
454.063
454.893
455.469
445.98
446.378
446.308
445.767
444.757
446.213
446.614
446.546
446.006
444.995
446.791
447.197
447.133
446.595
445.582
447.709
448.125
448.067
447.532
446.516
448.95
449.381
449.335
448.805
447.786
450.454
450.906
450.879
450.359
449.337
445.905
446.304
446.235
445.696
444.686
446.127
446.529
446.463
445.925
444.915
446.678
447.086
447.024
446.488
445.476
447.54
447.958
447.903
447.37
446.356
448.677
449.109
449.066
448.539
447.523
450.02
450.473
450.448
449.931
448.913
445.417
445.813
445.742
445.203
444.195
444.587
444.98
444.909
444.372
443.371
445.679
446.078
446.009
445.471
444.463
444.885
445.281
445.212
444.677
443.674
446.326
446.73
446.665
446.128
445.118
445.614
446.017
445.952
445.418
444.412
447.364
447.779
447.721
447.186
446.172
446.807
447.22
447.164
446.632
445.622
448.758
449.188
449.143
448.613
447.595
448.34
448.771
448.729
448.203
447.189
450.387
450.839
450.812
450.293
449.272
449.935
450.39
450.366
449.852
448.836
452.083
452.567
452.567
452.064
451.045
453.652
454.18
454.22
453.744
452.731
455.038
455.626
455.721
455.285
454.286
456.231
456.895
457.061
456.675
455.699
457.167
457.908
458.137
457.798
456.845
457.837
458.621
458.882
458.566
457.622
451.464
451.946
451.947
451.445
450.43
452.885
453.405
453.439
452.96
451.95
454.185
454.751
454.828
454.379
453.378
455.3
455.919
456.042
455.626
454.638
456.179
456.843
457.006
456.618
455.641
456.784
457.472
457.654
457.279
456.306
445.087
445.546
446.347
447.486
448.947
450.668
445.011
445.457
446.227
447.303
448.641
450.164
444.533
443.714
445.03
444.258
445.909
445.232
447.181
446.672
448.805
448.443
450.686
450.332
452.488
454.163
455.514
456.437
456.836
456.78
451.741
453.206
454.418
455.272
455.714
455.761
446.095
446.493
446.422
445.881
444.869
446.558
446.958
446.888
446.345
445.331
447.367
447.771
447.703
447.16
446.141
448.517
448.929
448.866
448.323
447.298
449.994
450.418
450.362
449.821
448.79
451.737
452.179
452.136
451.599
450.562
446.019
446.418
446.348
445.808
444.798
446.469
446.87
446.801
446.26
445.247
447.247
447.653
447.587
447.045
446.028
448.334
448.748
448.687
448.146
447.124
449.689
450.115
450.062
449.523
448.496
451.233
451.676
451.637
451.104
450.072
445.536
445.932
445.86
445.32
444.312
444.711
445.105
445.033
444.496
443.493
446.038
446.435
446.365
445.823
444.812
445.26
445.656
445.585
445.046
444.04
446.925
447.328
447.259
446.717
445.701
446.243
446.644
446.576
446.036
445.024
448.209
448.62
448.556
448.013
446.99
447.697
448.106
448.043
447.502
446.483
449.851
450.274
450.218
449.676
448.646
449.487
449.91
449.855
449.316
448.288
451.755
452.195
452.151
451.613
450.575
451.398
451.839
451.796
451.26
450.225
453.587
454.054
454.031
453.505
452.465
455.3
455.803
455.811
455.303
454.266
456.702
457.256
457.31
456.835
455.808
457.697
458.323
458.443
458.016
457.01
458.188
458.895
459.087
458.714
457.737
458.205
458.975
459.221
458.892
457.939
452.837
453.305
453.285
452.763
451.729
454.336
454.836
454.845
454.341
453.309
455.59
456.133
456.18
455.702
454.678
456.495
457.088
457.182
456.738
455.728
456.988
457.632
457.772
457.363
456.371
457.071
457.751
457.925
457.542
456.563
457.167
457.221
454.369
452.496
452.447
451.979
453.679
458.312
457.805
457.919
456.542
456.439
456.799
455.484
455.299
454.553
458.367
458.042
456.615
456.438
457.291
457.014
455.939
455.699
454.083
454.028
455.49
455.455
457.779
457.6
458.278
457.62
457.386
458.049
456.084
454.577
456.447
459.359
460.417
460.823
460.672
459.946
458.876
459.789
460.147
459.91
459.014
455.5
455.997
455.997
455.483
454.441
453.591
454.054
454.026
453.496
452.454
453.547
454.016
453.996
453.472
452.434
453.067
453.525
453.495
452.963
451.923
454.794
455.276
455.265
454.743
453.7
460.253
461.204
461.552
461.344
460.608
459.686
460.592
460.896
460.645
459.848
459.375
460.156
460.408
460.08
459.125
458.232
459.041
459.273
458.959
458.052
457.687
458.299
458.404
457.965
456.953
458.141
458.832
459.006
458.619
457.634
456.682
457.248
457.314
456.847
455.824
456.517
457.104
457.191
456.742
455.729
455.73
456.278
456.329
455.855
454.832
460.28
461.217
461.554
461.336
460.579
459.433
460.167
460.38
460.022
459.048
457.845
458.439
458.529
458.077
457.057
457.646
458.217
458.285
457.818
456.79
458.564
459.197
459.32
458.893
457.883
458.255
458.858
458.955
458.508
457.489
457.125
457.675
457.724
457.243
456.211
456.868
457.401
457.434
456.942
455.904
455.226
455.737
455.754
455.254
454.22
455.157
455.652
455.653
455.141
454.101
456.669
457.213
457.259
456.778
455.747
456.62
457.15
457.182
456.689
455.652
459.839
460.831
461.204
461.021
460.272
459.127
459.955
460.243
459.949
459.014
459.942
460.796
461.109
460.852
460.009
458.98
459.69
459.885
459.514
458.534
458.669
459.312
459.447
459.028
458.023
459.454
460.201
460.429
460.085
459.118
457.272
457.822
457.872
457.391
456.358
455.714
456.217
456.223
455.713
454.672
457.652
458.221
458.287
457.817
456.789
455.897
456.896
457.32
457.198
456.574
455.317
457.454
457.372
459.073
459.111
457.284
457.129
459.009
458.91
455.693
453.85
455.676
454.023
455.5
455.584
454.324
457.513
457.422
459.148
459.199
457.322
457.163
459.066
458.935
455.612
453.676
455.599
453.892
455.43
455.555
454.209
457.502
457.399
459.17
459.235
457.288
457.117
459.067
458.924
455.537
453.194
455.518
453.472
455.343
455.472
453.851
457.155
457.051
458.854
458.926
456.926
456.72
458.742
458.573
455.065
452.583
455.064
452.878
454.903
455.049
453.329
456.518
456.417
458.205
458.278
456.288
456.044
458.091
457.919
454.417
452.09
454.424
452.322
454.286
454.384
452.76
455.365
455.271
457.013
457.085
455.162
454.953
456.902
456.744
453.389
451.254
453.413
451.47
453.296
453.403
451.91
461.669
461.673
460.518
460.529
461.634
461.594
460.478
460.414
462.482
463.083
462.438
462.988
462.414
462.299
462.795
461.761
461.748
460.599
460.625
461.684
461.614
460.537
460.46
462.609
463.095
462.539
462.974
462.465
462.31
462.765
461.804
461.769
460.632
460.675
461.673
461.575
460.541
460.431
462.555
462.844
462.466
462.734
462.345
462.181
462.54
461.486
461.435
460.318
460.372
461.317
461.183
460.212
460.092
462.153
462.255
462.048
462.152
461.884
461.687
461.968
460.801
460.744
459.652
459.71
460.599
460.42
459.542
459.407
461.39
461.389
461.276
461.306
461.093
460.872
461.153
459.547
459.487
458.427
458.487
459.342
459.183
458.316
458.185
460.124
460.25
460.015
460.159
459.86
459.671
460.003
447.147
447.452
448.046
448.544
449.305
449.814
451.016
451.436
450.631
451.12
449.284
449.774
448.289
448.747
447.478
447.807
449.735
450.396
450.603
451.517
451.821
452.662
452.628
453.702
446.092
444.332
446.418
444.77
446.939
445.243
447.476
445.869
448.803
447.814
449.717
448.465
446.335
447.378
451.678
453.273
452.574
453.768
453.588
454.947
454.646
455.682
449.879
451.53
450.834
452.091
448.43
450.03
442.303
441.076
443.132
441.852
443.219
441.677
444.223
442.798
444.521
442.44
446.087
444.141
447.319
445.389
448.743
446.774
450.266
450.565
451.646
451.804
453.032
453.399
454.15
454.516
449.225
448.91
447.624
447.603
452.821
452.836
453.891
453.698
455.161
455.459
456.114
456.267
450.547
449.998
451.729
450.885
446.843
444.508
446.033
443.435
445.135
442.759
444.679
441.992
448.267
445.984
447.153
444.596
449.54
447.281
448.044
445.521
439.4
436.743
438.971
436.35
440.254
437.77
439.448
436.941
441.635
439.71
440.227
438.157
448.336
451.581
445.384
443.166
440.755
451.076
447.646
444.119
441.755
439.173
451.996
448.94
445.985
443.19
440.447
434.292
433.035
433.034
431.925
435.563
434.122
433.892
432.694
437.722
436.1
435.338
433.913
450.249
448.886
446.508
444.693
443.053
441.186
440.314
438.48
436.728
434.919
451.375
450.262
447.955
446.079
444.756
442.64
441.584
439.321
437.605
435.255
449.653
447.57
451.168
449.316
453.018
452.327
454.386
453.949
447.76
445.353
446.285
443.725
452.455
450.601
453.302
451.532
455.492
455.073
456.296
455.962
449.099
446.651
449.95
447.56
443.895
441.031
439.14
435.72
442.698
439.682
438.321
434.954
444.992
442.221
439.915
436.555
446.024
443.226
440.986
437.802
432.548
431.915
430.861
432.347
432.008
431.035
433.374
432.606
431.483
432.97
432.569
431.518
435.003
434.018
432.762
433.889
433.333
432.152
447.212
445.318
443.323
442.736
441.067
439.304
439.374
437.916
436.359
436.978
435.73
434.243
434.629
433.887
432.501
448.694
446.557
444.289
443.557
441.337
439.11
440.08
438.097
436.096
437.283
435.739
433.961
434.693
433.748
432.148
455.521
456.206
456.141
457.028
453.852
454.692
454.558
455.605
455.726
457.047
455.888
457.115
456.174
457.348
456.478
457.575
457.467
456.87
457.86
457.152
457.639
458.134
457.733
458.552
456.45
457.355
457.882
458.677
458.439
459.186
458.437
459.211
458.391
459.579
458.159
459.258
458.613
459.821
458.572
459.671
458.821
460.128
459.176
460.348
459.447
460.456
460.107
460.914
457.078
457.662
457.895
458.541
455.327
455.831
456.269
456.812
459.021
459.79
458.3
459.015
458.684
459.299
459.467
459.967
457.156
457.656
458.014
458.395
459.721
460.464
460.441
461.06
459.959
460.953
460.597
461.157
459.373
460.459
459.917
460.588
460.535
461.393
461.191
461.65
461.166
461.864
461.714
462.077
458.283
457.64
459.432
458.776
458.333
457.651
459.535
458.85
458.399
457.784
459.692
459.079
456.438
454.351
457.743
458.784
459.882
453.882
455.942
457.142
458.165
459.343
454.775
456.812
458.274
459.253
460.025
456.562
455.092
457.689
456.263
456.669
455.265
457.871
456.502
456.921
455.587
458.222
456.943
453.259
452.108
455.446
454.27
456.685
455.482
457.646
456.424
458.761
457.55
454.374
453.668
456.462
455.747
457.882
457.046
458.787
457.778
459.463
458.236
457.741
457.426
458.637
458.551
455.845
455.588
456.908
456.943
459.738
459.363
458.962
458.396
459.333
459.424
459.993
460.15
457.74
457.944
458.478
458.76
460.366
460.148
460.96
460.799
460.393
459.71
460.651
459.638
459.688
458.835
460.101
458.961
460.973
460.439
461.128
460.236
461.468
460.991
461.562
460.781
453.106
451.141
449.296
453.824
451.601
449.746
453.398
451.408
449.519
454.16
451.922
449.986
453.828
451.869
449.947
454.703
452.355
450.286
450.569
448.675
446.647
452.695
450.729
448.65
453.88
451.826
449.707
454.727
452.671
450.611
455.293
452.818
450.559
452.411
450.34
448.029
454.432
452.315
449.984
455.553
453.31
450.906
456.035
453.678
451.25
455.868
453.266
450.781
460.017
459.095
456.814
452.71
459.634
458.651
456.298
452.165
460.192
459.233
456.943
452.8
459.957
458.907
456.529
452.38
460.414
459.4
457.2
453.175
460.515
459.384
457.038
452.926
460.454
459.202
456.692
452.483
460.706
459.312
456.699
452.459
460.934
459.73
457.431
453.351
460.86
459.575
457.463
453.785
460.565
459.48
457.4
453.613
460.451
459.288
457.326
453.863
461.235
459.914
457.435
453.202
461.216
459.823
457.586
453.818
461.544
460.107
457.539
453.325
461.53
460.041
457.736
453.98
459.95
459.124
457.044
453.175
459.416
458.71
456.93
453.546
460.001
459.147
457.095
453.254
459.44
458.702
456.932
453.582
460.071
459.165
457.176
453.444
459.557
458.744
456.968
453.657
460.093
459.119
457.224
453.707
459.667
458.774
457.017
453.796
460.044
458.996
457.183
453.956
458.596
457.997
456.389
453.955
457.676
457.144
455.503
453.217
458.697
458.049
456.429
454.002
457.781
457.191
455.529
453.235
458.887
458.148
456.489
454.044
457.971
457.283
455.577
453.277
459.162
458.3
456.602
454.144
458.228
457.415
455.656
453.336
459.516
458.498
456.738
454.252
458.529
457.567
455.741
453.394
460.193
458.884
456.927
454.342
459.298
458.013
456.023
453.586
459.86
458.689
456.828
454.29
458.915
457.788
455.88
453.492
460.493
459.066
457.02
454.388
459.653
458.226
456.153
453.688
460.782
459.254
457.148
454.492
459.98
458.434
456.291
453.798
446.555
441.621
437.444
434.069
431.491
446.238
441.363
437.202
433.833
431.26
446.596
441.642
437.458
434.079
431.5
446.306
441.409
437.238
433.865
431.289
446.667
441.674
437.478
434.095
431.514
446.533
441.601
437.414
434.032
431.451
446.412
441.475
437.284
433.9
431.319
446.49
441.531
437.325
433.932
431.348
446.715
441.701
437.495
434.107
431.523
446.461
441.34
437.124
433.74
431.162
446.656
441.612
437.406
434.022
431.441
446.379
441.255
437.044
433.665
431.09
446.723
441.703
437.49
434.097
431.512
446.435
441.302
437.081
433.693
431.115
446.804
441.757
437.529
434.128
431.539
446.457
441.3
437.066
433.673
431.093
446.523
441.51
437.323
433.949
431.374
446.156
441.076
436.892
433.527
430.96
446.531
441.499
437.308
433.932
431.356
446.161
441.07
436.883
433.516
430.948
446.526
441.464
437.264
433.886
431.31
446.16
441.051
436.858
433.49
430.922
446.418
441.307
437.102
433.724
431.149
446.099
440.976
436.78
433.41
430.842
446.198
441.074
436.87
433.496
430.925
427.641
426.896
428.011
427.246
428.658
427.808
429.488
428.486
430.332
429.161
431.692
430.352
431.006
429.688
432.36
431.075
433.046
431.881
419.73
411.157
404.021
398.519
394.792
419.851
411.221
404.007
398.472
394.685
419.9
411.247
404.077
398.56
394.827
420.001
411.286
404.059
398.487
394.708
420.224
411.427
404.193
398.644
394.898
420.314
411.459
404.17
398.568
394.776
420.664
411.685
404.363
398.769
395.002
420.717
411.695
404.325
398.682
394.87
421.181
412.014
404.587
398.935
395.141
421.155
411.974
404.515
398.824
394.99
422.297
412.819
405.177