/*--------------------------------*- C++ -*----------------------------------*\
  =========                 |
  \\      /  F ield         | OpenFOAM: The Open Source CFD Toolbox
   \\    /   O peration     | Website:  https://openfoam.org
    \\  /    A nd           | Version:  13
     \\/     M anipulation  |
\*---------------------------------------------------------------------------*/
FoamFile
{
    format      ascii;
    class       volScalarField;
    location    "449.831886";
    object      T;
}
// * * * * * * * * * * * * * * * * * * * * * * * * * * * * * * * * * * * * * //

dimensions      [0 0 0 1 0 0 0];

internalField   nonuniform List<scalar> 
5712
(
468.528
468.897
469.504
470.071
470.936
471.518
472.885
473.365
472.445
473.003
470.912
471.471
469.78
470.303
468.919
469.315
471.425
472.178
472.417
473.458
473.802
474.762
474.725
475.95
467.31
465.289
467.701
465.807
468.238
466.301
468.85
467.013
470.363
469.234
471.405
469.976
467.546
468.736
473.642
475.463
474.665
476.029
475.82
477.371
477.028
478.211
471.589
473.474
472.68
474.115
469.936
471.762
462.97
461.568
463.933
462.471
463.989
462.227
465.132
463.505
465.475
463.098
467.262
465.04
468.668
466.464
470.293
468.046
472.029
472.37
473.605
473.785
475.183
475.602
476.46
476.878
470.843
470.483
469.015
468.991
474.947
474.964
476.169
475.948
477.616
477.956
478.705
478.878
472.352
471.726
473.703
472.739
468.126
465.459
467.201
464.235
466.175
463.462
465.655
462.587
469.751
467.144
468.48
465.561
471.205
468.625
469.498
466.617
459.663
456.633
459.161
456.17
460.601
457.764
459.683
456.821
462.179
459.98
460.572
458.208
469.824
473.525
466.457
463.926
461.175
472.947
469.035
465.011
462.315
459.368
473.998
470.513
467.143
463.954
460.824
453.837
452.4
452.384
451.115
455.244
453.597
453.339
451.97
457.709
455.856
454.99
453.363
472.002
470.444
467.735
465.66
463.793
461.66
460.669
458.573
456.577
454.511
473.289
472.016
469.388
467.244
465.739
463.322
462.12
459.535
457.579
454.896
471.328
468.948
473.058
470.942
475.165
474.374
476.728
476.226
469.17
466.422
467.486
464.562
474.527
472.409
475.495
473.473
477.991
477.511
478.91
478.526
470.699
467.903
471.671
468.942
464.76
461.49
459.334
455.429
463.393
459.95
458.398
454.554
466.013
462.85
460.219
456.383
467.192
463.996
461.441
457.807
451.837
451.107
449.898
451.594
451.201
450.087
452.741
451.862
450.578
452.283
451.823
450.621
454.601
453.475
452.039
453.332
452.694
451.343
468.53
466.366
464.085
463.424
461.516
459.501
459.589
457.922
456.142
456.857
455.429
453.729
454.176
453.326
451.741
470.224
467.781
465.189
464.364
461.826
459.28
460.396
458.129
455.842
457.206
455.439
453.405
454.249
453.167
451.336
478.018
478.8
478.726
479.74
476.116
477.076
476.923
478.119
478.272
479.778
478.47
479.868
478.759
480.097
479.105
480.355
480.237
479.555
480.687
479.879
480.431
480.996
480.546
481.482
479.085
480.118
480.712
481.621
481.349
482.203
481.343
482.229
481.305
482.651
481.053
482.297
481.539
482.915
481.492
482.743
481.778
483.265
482.184
483.517
482.494
483.641
483.249
484.165
479.796
480.463
480.729
481.467
477.8
478.376
478.877
479.496
482.013
482.89
481.187
482.003
481.632
482.334
482.526
483.097
479.891
480.46
480.87
481.305
482.813
483.661
483.636
484.342
483.08
484.209
483.808
484.443
482.409
483.644
483.031
483.793
483.738
484.713
484.487
485.006
484.459
485.251
485.085
485.495
481.171
480.43
482.476
481.721
481.217
480.436
482.587
481.805
481.294
480.591
482.767
482.067
479.063
476.683
480.549
481.735
482.985
476.147
478.496
479.862
481.028
482.369
477.168
479.49
481.157
482.272
483.149
479.197
477.521
480.478
478.851
479.314
477.71
480.687
479.124
479.605
478.081
481.088
479.628
475.435
474.119
477.928
476.585
479.34
477.965
480.435
479.038
481.705
480.322
476.709
475.901
479.09
478.272
480.708
479.752
481.739
480.586
482.507
481.106
480.551
480.19
481.576
481.476
478.389
478.094
479.605
479.642
482.83
482.4
481.943
481.295
482.371
482.472
483.126
483.302
480.555
480.785
481.398
481.717
483.548
483.297
484.227
484.041
483.575
482.794
483.865
482.708
482.769
481.794
483.236
481.934
484.238
483.626
484.411
483.392
484.804
484.257
484.907
484.014
475.255
473.013
470.905
476.067
473.531
471.414
475.579
473.305
471.147
476.45
473.894
471.682
476.071
473.834
471.638
477.071
474.389
472.025
472.36
470.195
467.878
474.784
472.538
470.163
476.135
473.788
471.367
477.1
474.752
472.398
477.746
474.918
472.338
474.464
472.097
469.456
476.768
474.349
471.686
478.046
475.485
472.737
478.595
475.902
473.129
478.403
475.431
472.592
483.141
482.079
479.467
474.774
482.715
481.581
478.886
474.157
483.332
482.228
479.605
474.865
483.062
481.855
479.132
474.383
483.585
482.419
479.899
475.294
483.7
482.4
479.714
475.009
483.631
482.192
479.319
474.502
483.919
482.318
479.326
474.475
484.179
482.797
480.164
475.494
484.095
482.619
480.2
475.992
483.758
482.511
480.129
475.795
483.628
482.292
480.044
476.081
484.524
483.007
480.168
475.325
484.503
482.904
480.342
476.03
484.877
483.228
480.287
475.465
484.862
483.153
480.513
476.215
483.057
482.106
479.724
475.302
482.444
481.629
479.591
475.722
483.113
482.13
479.78
475.384
482.472
481.622
479.593
475.76
483.193
482.151
479.872
475.602
482.605
481.67
479.635
475.846
483.219
482.098
479.928
475.903
482.731
481.704
479.691
476.005
483.163
481.957
479.88
476.188
481.504
480.81
478.969
476.188
480.452
479.835
477.955
475.341
481.623
480.876
479.019
476.242
480.576
479.896
477.991
475.366
481.84
480.989
479.087
476.29
480.793
480
478.046
475.414
482.155
481.162
479.216
476.404
481.088
480.151
478.136
475.481
482.56
481.389
479.372
476.527
481.432
480.325
478.233
475.548
483.333
481.83
479.589
476.631
482.311
480.836
478.555
475.767
482.953
481.608
479.475
476.571
481.873
480.578
478.392
475.66
483.676
482.038
479.695
476.683
482.717
481.079
478.704
475.885
484.007
482.253
479.841
476.802
483.091
481.317
478.862
476.01
467.726
462.081
457.304
453.444
450.498
467.371
461.793
457.034
453.181
450.24
467.769
462.103
457.318
453.455
450.507
467.436
461.836
457.066
453.209
450.265
467.851
462.14
457.341
453.473
450.523
467.696
462.056
457.268
453.4
450.451
467.558
461.912
457.119
453.249
450.3
467.648
461.977
457.167
453.287
450.333
467.905
462.17
457.36
453.486
450.533
467.615
461.758
456.936
453.067
450.121
467.838
462.068
457.259
453.389
450.44
467.521
461.661
456.846
452.981
450.038
467.914
462.173
457.355
453.475
450.521
467.586
461.715
456.887
453.014
450.067
468.006
462.235
457.399
453.511
450.552
467.611
461.712
456.871
452.991
450.042
467.685
461.949
457.161
453.303
450.359
467.262
461.451
456.666
452.819
449.884
467.696
461.941
457.147
453.287
450.343
467.274
461.451
456.662
452.813
449.878
467.69
461.9
457.097
453.235
450.29
467.271
461.429
456.634
452.783
449.847
467.566
461.721
456.912
453.049
450.106
467.202
461.343
456.544
452.691
449.755
467.315
461.454
456.647
452.789
449.85
446.226
445.371
446.628
445.756
447.367
446.397
448.315
447.172
449.279
447.942
450.834
449.304
450.049
448.545
451.596
450.129
452.38
451.05
437.19
427.405
419.259
412.979
408.722
437.323
427.473
419.239
412.921
408.596
437.374
427.501
419.32
413.022
408.759
437.49
427.546
419.299
412.94
408.623
437.744
427.707
419.452
413.118
408.84
437.847
427.744
419.425
413.032
408.7
438.247
428.002
419.647
413.261
408.96
438.307
428.013
419.602
413.161
408.808
438.837
428.377
419.902
413.45
409.118
438.807
428.331
419.819
413.323
408.945
440.112
429.297
420.576
413.975
409.575
439.973
429.164
420.427
413.802
409.371
439.474
428.825
420.223
413.696
409.329
439.359
428.713
420.089
413.531
409.128
440.746
429.778
420.944
414.27
409.836
440.654
429.681
420.825
414.123
409.658
441.389
430.274
421.328
414.579
410.107
441.388
430.23
421.259
414.473
409.957
480.435
479.092
477.802
479.338
477.039
477.272
477.367
477.686
476.949
477.381
475.137
475.634
474.131
474.691
475.485
475.958
475.995
476.326
476.067
476.325
479.153
479.372
474.508
472.672
472.172
471.956
473.621
475.107
473.094
475.258
471.302
468.699
474.6
473.982
471.936
473.983
473.142
472.899
476.724
476.644
475.381
475.715
476.315
476.679
476.089
475.437
473.167
473.537
474.495
474.873
478.417
478.781
477.897
478.161
477.43
477.406
475.956
474.356
476.03
481.692
482.961
483.469
483.336
482.547
481.283
482.355
482.792
482.547
481.541
475.82
476.422
476.468
475.924
474.767
473.932
474.483
474.481
473.906
472.74
473.446
474.018
474.04
473.484
472.333
473.211
473.759
473.757
473.184
472.023
474.915
475.503
475.536
474.985
473.828
477.868
479.513
480.354
480.474
479.902
476.026
477.798
478.691
478.818
478.162
477.247
478.499
479.135
479.04
478.122
474.011
475.711
476.53
476.578
475.782
471.327
473.06
473.887
473.941
473.149
476.192
477.1
477.437
477.116
476.074
475.819
476.954
477.489
477.315
476.352
473.708
474.796
475.295
475.098
474.131
475.47
476.274
476.517
476.128
475.054
474.712
475.604
475.931
475.605
474.567
474.354
475.13
475.35
474.947
473.871
479.264
480.664
481.347
481.356
480.675
478.416
479.475
479.945
479.727
478.737
476.9
477.731
477.996
477.621
476.548
477.171
477.932
478.13
477.702
476.601
477.882
478.754
479.055
478.706
477.644
478.166
478.953
479.173
478.761
477.663
477.479
478.162
478.283
477.793
476.658
476.816
477.491
477.608
477.118
475.984
474.523
475.185
475.296
474.808
473.687
474.859
475.479
475.547
475.024
473.883
475.92
476.654
476.831
476.389
475.286
476.258
476.945
477.074
476.596
475.471
480.883
482.189
482.748
482.656
481.916
480.579
481.598
482.003
481.734
480.712
479.962
481.131
481.676
481.546
480.701
479.775
480.67
480.983
480.64
479.576
478.96
479.785
480.039
479.652
478.565
479.145
480.163
480.6
480.359
479.355
477.357
478.054
478.19
477.713
476.584
475.687
476.313
476.383
475.86
474.714
477.468
478.207
478.384
477.939
476.826
479.957
479.13
479.892
478.975
481.769
480.81
481.808
480.958
479.818
479.714
478.937
479.12
481.737
481.679
480.856
481.111
478.027
476.126
477.281
475.457
478.017
476.298
477.142
475.457
477.111
477.889
477.531
478.051
476.557
475.774
477.862
476.942
478.28
477.274
479.713
478.746
480.281
479.34
476.075
475.091
476.656
475.533
474.7
473.525
474.37
472.826
473.783
472.312
474.502
472.674
473.748
472.125
474.828
472.366
474.299
472.102
473.304
471.06
471.963
469.683
479.11
478.605
478.691
478.122
481.489
481.306
481.046
480.883
476.421
475.031
476.805
475.534
478.025
477.534
477.174
476.806
480.4
480.339
479.611
479.677
475.742
474.421
474.818
473.637
474.045
471.333
471.821
468.792
474.32
471.406
472.257
469.068
473.386
470.789
471.227
468.284
472.408
469.849
470.414
467.527
474.301
473.471
472.592
471.274
474.447
473.766
472.354
471.086
474.71
474.349
471.922
470.874
479.221
481.675
476.814
474.218
470.897
481.757
479.428
477.028
474.299
470.358
481.53
478.889
475.847
472.519
469.077
472.076
471.403
467.725
466.417
472.732
472.059
467.977
466.67
473.706
473.146
468.279
466.963
481.697
481.309
479.215
478.762
476.616
476.162
473.476
472.904
467.858
466.457
481.505
481.089
478.602
477.694
475.3
474.165
471.478
470.136
466.344
464.66
477.881
476.328
477.437
475.846
481.184
480.962
480.794
480.648
473.719
471.488
474.25
472.133
477.045
475.223
476.322
474.376
480.334
480.082
479.683
479.358
473.322
470.82
472.531
469.877
469.281
466.441
463.665
460.119
470.062
467.302
464.716
461.39
468.67
465.727
462.765
459.11
468.091
464.948
462.253
458.661
471.091
470.471
467.149
466.998
471.731
471.045
467.306
467.203
472.669
471.695
467.458
467.292
480.511
479.109
477.907
476.591
475.411
474.268
472.28
471.201
467.135
467.016
480.27
478.754
476.427
475.036
473.041
471.974
469.621
469.069
466.073
466.186
484.738
484.784
483.877
484.229
483.412
483.451
482.513
482.875
485.661
486.292
484.844
485.5
485.636
486.226
484.748
485.386
484.888
485.643
485.01
485.571
486.087
485.365
483.431
482.485
482.089
481.166
483.846
482.776
484.187
483.225
484.351
483.363
486.642
486.804
485.871
486.075
486.644
486.865
485.827
486.12
486.61
486.941
485.997
486.417
485.082
485.597
484.196
484.876
484.998
485.019
484.596
484.727
483.483
483.484
483.056
483.123
485.609
485.788
485.979
486.027
484.008
484.296
483.308
483.757
482.441
482.633
481.703
482.035
485.048
485.413
484.38
484.931
486.304
486.702
486.36
486.522
486.64
486.926
486.558
486.66
485.771
486.293
486.036
486.272
485.142
485.79
485.608
485.922
486.985
486.866
487.095
486.891
486.93
486.799
487.086
486.861
486.798
486.69
487.036
486.834
485.148
483.661
486.107
486.715
486.911
483.65
485.078
486.02
486.621
486.774
483.672
485.144
486.11
486.61
486.669
486.336
485.402
486.261
485.264
486.348
485.475
486.308
485.351
486.348
485.572
486.375
485.496
483.632
483.253
485.057
484.594
485.907
485.335
486.406
485.737
486.414
485.614
483.743
483.553
485.186
484.934
486.062
485.646
486.452
485.837
486.359
485.556
485.191
485.178
484.842
484.976
483.684
483.802
483.273
483.571
485.748
485.574
486.038
485.747
484.314
484.557
483.772
483.985
482.704
483.106
482.109
482.474
485.298
485.196
484.809
484.666
486.142
485.637
485.994
485.184
486.372
485.769
486.212
485.358
485.794
485.326
485.694
484.868
485.342
484.836
485.332
484.49
484.258
483.179
483.812
482.548
484.41
483.251
483.921
482.583
484.55
483.265
484.085
482.533
482.454
481.038
483.718
482.27
484.415
482.959
484.726
483.225
484.194
482.364
482.874
481.245
484.149
482.448
484.681
482.907
484.657
482.811
483.987
481.918
486.027
484.025
480.793
475.666
485.358
483.369
480.11
474.987
486.067
484.076
480.854
475.69
485.424
483.457
480.226
475.119
486.096
484.118
481.052
476.049
485.689
483.751
480.648
475.639
484.964
483.101
479.947
474.93
484.403
482.649
479.555
474.634
485.901
483.972
480.985
476.066
485.562
483.623
480.918
476.523
486.012
484.041
481.186
476.51
485.639
483.661
480.997
476.752
485.62
483.758
480.699
475.706
485.403
483.522
480.793
476.381
485.256
483.488
480.472
475.598
485.167
483.363
480.667
476.337
486.25
484.245
481.18
476.287
485.954
483.954
481.172
476.816
486.207
484.206
481.186
476.324
485.887
483.886
481.129
476.815
486.101
484.105
481.195
476.474
485.8
483.798
481.075
476.825
485.893
483.9
481.153
476.715
485.678
483.674
481.023
476.898
485.604
483.605
481.012
476.964
485.248
483.253
480.625
477.438
484.319
482.326
479.657
476.676
485.248
483.25
480.63
477.456
484.315
482.316
479.648
476.667
485.228
483.223
480.601
477.423
484.292
482.282
479.613
476.646
485.199
483.185
480.591
477.425
484.262
482.239
479.577
476.618
485.141
483.12
480.568
477.43
484.204
482.163
479.514
476.565
484.822
482.842
480.314
477.214
483.977
481.959
479.35
476.407
485.008
482.997
480.45
477.326
484.128
482.087
479.454
476.51
484.583
482.657
480.145
477.057
483.731
481.767
479.193
476.281
484.311
482.461
479.992
476.929
483.426
481.545
479.024
476.141
468.254
462.404
457.505
453.579
450.602
467.874
462.104
457.228
453.311
450.341
468.251
462.398
457.501
453.577
450.602
467.877
462.107
457.235
453.322
450.353
468.276
462.399
457.502
453.58
450.606
468.062
462.28
457.408
453.494
450.524
467.813
462.069
457.217
453.315
450.351
467.744
462.036
457.204
453.312
450.352
468.235
462.371
457.486
453.57
450.598
467.907
461.933
457.046
453.14
450.178
468.227
462.303
457.405
453.487
450.515
467.87
461.87
456.975
453.068
450.105
468.142
462.312
457.442
453.534
450.566
467.785
461.836
456.962
453.064
450.106
468.086
462.283
457.43
453.531
450.567
467.68
461.754
456.897
453.009
450.055
468.238
462.283
457.369
453.442
450.467
467.832
461.791
456.877
452.959
449.993
468.215
462.254
457.342
453.417
450.444
467.818
461.775
456.863
452.947
449.982
468.157
462.181
457.272
453.351
450.38
467.768
461.724
456.817
452.905
449.942
467.984
461.97
457.066
453.153
450.186
467.64
461.604
456.706
452.799
449.839
467.699
461.683
456.789
452.884
449.924
458.623
457.631
458.482
457.469
458.161
457.122
457.649
456.632
456.823
455.948
454.713
453.58
455.663
454.677
453.888
452.638
453.134
451.864
446.137
433.705
423.88
416.584
411.822
446.41
433.847
423.897
416.548
411.704
446.009
433.615
423.816
416.536
411.782
446.244
433.721
423.827
416.469
411.652
445.749
433.437
423.691
416.441
411.703
445.991
433.55
423.708
416.379
411.577
445.344
433.161
423.495
416.291
411.575
445.618
433.3
423.532
416.245
411.463
444.767
432.776
423.218
416.075
411.389
445.136
432.983
423.305
416.069
411.311
443.375
431.815
422.514
415.526
410.923
443.621
431.964
422.572
415.509
410.849
444.083
432.322
422.89
415.818
411.169
444.443
432.537
422.987
415.825
411.108
442.7
431.302
422.125
415.218
410.662
442.831
431.377
422.135
415.171
410.567
442.035
430.781
421.722
414.896
410.383
442.097
430.787
421.693
414.821
410.259
481.645
480.374
481.394
482.724
484.719
483.886
484.728
483.781
483.403
482.425
483.412
482.567
465.937
466.2
466.853
467.89
469.291
470.983
465.852
466.102
466.724
467.697
468.977
470.488
465.299
464.357
465.595
464.694
466.326
465.519
467.5
466.866
469.073
468.597
470.906
470.39
472.808
474.553
476.073
477.348
478.318
479.018
472.106
473.688
475.123
476.34
477.29
477.949
467.089
467.544
467.463
466.845
465.691
467.355
467.813
467.735
467.118
465.963
468.016
468.481
468.407
467.792
466.635
469.067
469.542
469.476
468.864
467.703
470.487
470.979
470.926
470.321
469.156
472.207
472.724
472.692
472.098
470.931
467.003
467.459
467.38
466.764
465.61
467.258
467.717
467.641
467.026
465.872
467.888
468.354
468.283
467.67
466.514
468.874
469.351
469.288
468.68
467.521
470.174
470.668
470.619
470.017
468.855
471.711
472.229
472.2
471.609
470.446
466.445
466.897
466.816
466.2
465.049
465.496
465.945
465.864
465.251
464.106
466.745
467.2
467.122
466.506
465.355
465.837
466.29
466.211
465.599
464.453
467.485
467.947
467.873
467.259
466.104
466.672
467.132
467.058
466.447
465.298
468.673
469.146
469.08
468.469
467.31
468.036
468.509
468.444
467.836
466.682
470.268
470.759
470.707
470.102
468.938
469.791
470.283
470.234
469.633
468.474
472.131
472.648
472.617
472.023
470.857
471.615
472.134
472.108
471.519
470.359
474.071
474.624
474.624
474.049
472.884
475.866
476.469
476.515
475.97
474.813
477.452
478.123
478.232
477.732
476.591
478.817
479.576
479.764
479.322
478.207
479.888
480.734
480.995
480.607
479.516
480.655
481.549
481.846
481.484
480.406
473.364
473.914
473.914
473.341
472.18
474.989
475.583
475.621
475.074
473.919
476.476
477.123
477.21
476.697
475.553
477.753
478.459
478.599
478.123
476.994
478.758
479.516
479.702
479.258
478.141
479.45
480.236
480.443
480.014
478.902
466.068
466.593
467.51
468.812
470.483
472.452
465.982
466.492
467.373
468.603
470.134
471.877
465.434
464.499
466.003
465.121
467.009
466.235
468.464
467.882
470.322
469.908
472.474
472.069
474.535
476.451
477.997
479.054
479.511
479.449
473.681
475.357
476.744
477.722
478.228
478.282
467.22
467.675
467.593
466.975
465.819
467.749
468.206
468.126
467.506
466.347
468.674
469.137
469.059
468.438
467.274
469.99
470.461
470.389
469.768
468.597
471.68
472.164
472.1
471.481
470.303
473.674
474.179
474.129
473.515
472.331
467.134
467.589
467.51
466.892
465.737
467.648
468.107
468.028
467.41
466.252
468.538
469.002
468.926
468.307
467.145
469.781
470.254
470.184
469.566
468.398
471.331
471.818
471.757
471.142
469.968
473.098
473.604
473.559
472.95
471.77
466.581
467.033
466.951
466.334
465.182
465.639
466.088
466.006
465.392
464.246
467.154
467.609
467.528
466.91
465.754
466.266
466.718
466.637
466.022
464.872
468.17
468.63
468.551
467.932
466.771
467.391
467.848
467.77
467.153
465.998
469.638
470.108
470.034
469.414
468.246
469.053
469.521
469.449
468.831
467.667
471.517
472
471.936
471.316
470.139
471.101
471.585
471.522
470.905
469.731
473.694
474.198
474.147
473.531
472.346
473.288
473.791
473.741
473.129
471.946
475.79
476.324
476.297
475.695
474.507
477.749
478.324
478.333
477.753
476.566
479.354
479.987
480.048
479.505
478.33
480.493
481.208
481.344
480.856
479.706
481.055
481.863
482.08
481.654
480.536
481.076
481.954
482.234
481.857
480.768
474.933
475.467
475.444
474.847
473.666
476.648
477.219
477.229
476.652
475.473
478.083
478.702
478.755
478.209
477.039
479.118
479.796
479.902
479.394
478.24
479.683
480.419
480.578
480.11
478.975
479.778
480.555
480.753
480.314
479.195
479.897
479.956
476.686
474.544
474.489
473.953
475.897
481.208
480.629
480.755
479.184
479.059
479.473
477.966
477.756
476.901
481.269
480.893
479.259
479.055
480.033
479.715
478.483
478.209
476.363
476.298
477.972
477.93
480.597
480.388
481.164
480.408
480.14
480.901
478.65
476.925
479.065
482.398
483.605
484.066
483.892
483.061
481.845
482.886
483.293
483.021
481.996
477.979
478.546
478.546
477.959
476.767
475.795
476.323
476.292
475.685
474.494
475.746
476.282
476.259
475.66
474.473
475.197
475.72
475.684
475.077
473.889
477.172
477.722
477.709
477.112
475.92
483.423
484.507
484.903
484.662
483.82
482.776
483.809
484.153
483.865
482.954
482.417
483.308
483.595
483.219
482.126
481.114
482.035
482.299
481.938
480.901
480.485
481.183
481.303
480.8
479.643
481.006
481.794
481.992
481.549
480.422
479.335
479.981
480.055
479.521
478.352
479.147
479.817
479.916
479.402
478.244
478.246
478.872
478.93
478.387
477.218
483.452
484.52
484.903
484.653
483.786
482.482
483.319
483.561
483.151
482.037
480.664
481.342
481.444
480.927
479.761
480.435
481.087
481.164
480.629
479.455
481.486
482.208
482.348
481.859
480.705
481.132
481.82
481.93
481.419
480.254
479.838
480.466
480.521
479.971
478.791
479.545
480.153
480.19
479.627
478.441
477.668
478.252
478.271
477.699
476.518
477.588
478.153
478.154
477.568
476.38
479.318
479.94
479.992
479.441
478.263
479.262
479.867
479.902
479.338
478.154
482.948
484.079
484.503
484.291
483.434
482.131
483.075
483.403
483.066
481.996
483.064
484.038
484.394
484.098
483.135
481.961
482.772
482.993
482.568
481.448
481.605
482.339
482.492
482.013
480.864
482.505
483.357
483.617
483.222
482.116
480.006
480.634
480.691
480.14
478.96
478.225
478.798
478.805
478.222
477.032
480.442
481.091
481.166
480.629
479.453
478.437
479.579
480.064
479.926
479.213
477.778
480.239
480.146
482.085
482.129
480.045
479.868
482.012
481.898
478.23
476.127
478.21
476.324
478.01
478.105
476.667
480.307
480.202
482.171
482.23
480.088
479.906
482.077
481.926
478.138
475.929
478.123
476.176
477.93
478.072
476.536
480.294
480.177
482.197
482.272
480.049
479.853
482.079
481.914
478.053
475.379
478.031
475.696
477.83
477.977
476.128
479.898
479.78
481.836
481.919
479.635
479.4
481.707
481.513
477.514
474.682
477.512
475.018
477.328
477.494
475.532
479.17
479.055
481.094
481.178
478.907
478.627
480.964
480.766
476.774
474.117
476.781
474.382
476.623
476.733
474.881
477.853
477.745
479.732
479.815
477.62
477.38
479.604
479.423
475.599
473.162
475.626
473.408
475.491
475.613
473.909
485.045
485.048
483.732
483.746
485.004
484.958
483.686
483.614
485.97
486.654
485.919
486.545
485.893
485.761
486.325
485.15
485.134
483.826
483.855
485.061
484.982
483.754
483.666
486.115
486.668
486.035
486.53
485.951
485.774
486.292
485.199
485.159
483.863
483.913
485.049
484.936
483.76
483.632
486.054
486.382
485.952
486.257
485.814
485.627
486.035
484.836
484.778
483.505
483.567
484.643
484.489
483.383
483.245
485.595
485.709
485.475
485.592
485.288
485.063
485.382
484.054
483.988
482.744
482.811
483.822
483.617
482.618
482.463
484.724
484.721
484.594
484.626
484.384
484.132
484.451
482.62
482.552
481.344
481.413
482.386
482.204
481.217
481.067
483.277
483.419
483.153
483.316
482.975
482.759
483.137
468.462
468.812
469.489
470.058
470.926
471.508
472.877
473.358
472.437
472.995
470.901
471.46
469.765
470.289
468.839
469.215
471.417
472.174
472.41
473.453
473.797
474.758
474.72
475.946
467.26
465.252
467.632
465.752
468.227
466.292
468.841
467.007
470.357
469.227
471.4
469.971
467.539
468.73
473.637
475.46
474.662
476.026
475.816
477.369
477.025
478.208
471.585
473.471
472.677
474.113
469.932
471.759
462.937
461.536
463.883
462.421
463.984
462.222
465.128
463.502
465.47
463.094
467.258
465.036
468.665
466.461
470.291
468.043
472.025
472.368
473.602
473.783
475.18
475.6
476.458
476.876
470.84
470.481
469.012
468.988
474.944
474.962
476.167
475.946
477.614
477.954
478.703
478.876
472.35
471.724
473.701
472.737
468.122
465.456
467.199
464.233
466.171
463.459
465.652
462.585
469.748
467.142
468.477
465.559
471.202
468.623
469.496
466.615
459.623
456.591
459.133
456.142
460.599
457.763
459.679
456.818
462.176
459.978
460.569
458.205
469.821
473.523
466.454
463.923
461.172
472.945
469.033
465.009
462.312
459.366
473.996
470.511
467.14
463.952
460.821
453.793
452.357
452.358
451.092
455.244
453.598
453.338
451.969
457.708
455.855
454.989
453.362
472
470.442
467.733
465.659
463.792
461.659
460.667
458.572
456.575
454.51
473.287
472.014
469.386
467.243
465.737
463.32
462.118
459.533
457.577
454.894
471.325
468.946
473.056
470.94
475.163
474.372
476.726
476.225
469.168
466.42
467.484
464.56
474.526
472.407
475.493
473.472
477.989
477.509
478.909
478.524
470.698
467.901
471.67
468.94
464.758
461.488
459.332
455.427
463.39
459.948
458.396
454.552
466.011
462.848
460.217
456.381
467.19
463.995
461.44
457.805
451.799
451.073
449.867
451.571
451.18
450.068
452.742
451.862
450.578
452.281
451.821
450.619
454.6
453.474
452.037
453.331
452.693
451.341
468.529
466.364
464.084
463.423
461.514
459.5
459.588
457.921
456.14
456.856
455.428
453.728
454.175
453.324
451.739
470.222
467.78
465.188
464.362
461.824
459.278
460.395
458.128
455.841
457.204
455.437
453.404
454.248
453.165
451.334
478.015
478.798
478.724
479.738
476.113
477.073
476.919
478.116
478.245
479.751
478.431
479.828
478.757
480.096
479.106
480.355
480.236
479.554
480.685
479.877
480.429
480.995
480.544
481.481
479.083
480.116
480.711
481.62
481.348
482.202
481.342
482.228
481.283
482.636
481.018
482.269
481.538
482.913
481.491
482.742
481.777
483.264
482.184
483.516
482.493
483.641
483.248
484.164
479.794
480.461
480.728
481.466
477.797
478.374
478.874
479.495
482.011
482.889
481.186
482.002
481.63
482.332
482.525
483.096
479.889
480.458
480.869
481.303
482.811
483.659
483.634
484.341
483.079
484.208
483.807
484.442
482.408
483.643
483.03
483.792
483.737
484.712
484.486
485.005
484.458
485.251
485.084
485.494
481.158
480.422
482.468
481.718
481.216
480.435
482.586
481.804
481.293
480.59
482.766
482.066
479.061
476.681
480.548
481.734
482.984
476.145
478.495
479.861
481.027
482.368
477.166
479.489
481.155
482.271
483.148
479.19
477.512
480.477
478.848
479.314
477.71
480.686
479.123
479.604
478.08
481.088
479.627
475.433
474.118
477.927
476.583
479.338
477.964
480.434
479.038
481.704
480.321
476.707
475.899
479.088
478.271
480.707
479.751
481.738
480.585
482.506
481.105
480.55
480.189
481.574
481.474
478.388
478.092
479.603
479.641
482.828
482.399
481.942
481.294
482.369
482.471
483.124
483.301
480.554
480.783
481.396
481.716
483.547
483.295
484.226
484.04
483.574
482.792
483.864
482.707
482.768
481.792
483.235
481.933
484.237
483.625
484.41
483.391
484.803
484.256
484.906
484.013
475.244
473
470.892
476.064
473.525
471.407
475.579
473.305
471.147
476.448
473.893
471.681
476.071
473.834
471.637
477.07
474.388
472.024
472.359
470.194
467.877
474.783
472.537
470.162
476.134
473.787
471.366
477.1
474.751
472.397
477.745
474.917
472.337
474.463
472.095
469.455
476.767
474.348
471.685
478.045
475.483
472.736
478.594
475.901
473.128
478.402
475.43
472.591
483.13
482.071
479.458
474.762
482.693
481.563
478.868
474.139
483.331
482.228
479.605
474.865
483.062
481.856
479.132
474.385
483.584
482.418
479.899
475.294
483.7
482.4
479.714
475.01
483.631
482.192
479.319
474.503
483.919
482.318
479.327
474.476
484.179
482.797
480.164
475.495
484.095
482.619
480.2
475.992
483.757
482.511
480.129
475.796
483.627
482.292
480.044
476.082
484.523
483.007
480.168
475.325
484.503
482.904
480.342
476.031
484.877
483.228
480.287
475.465
484.861
483.152
480.513
476.215
483.053
482.103
479.721
475.295
482.443
481.631
479.591
475.719
483.112
482.13
479.78
475.385
482.471
481.621
479.593
475.76
483.192
482.15
479.872
475.602
482.604
481.669
479.635
475.846
483.218
482.098
479.927
475.903
482.731
481.704
479.69
476.005
483.163
481.957
479.88
476.188
481.507
480.815
478.973
476.188
480.455
479.841
477.961
475.346
481.622
480.875
479.018
476.242
480.575
479.895
477.99
475.366
481.84
480.989
479.087
476.29
480.793
479.999
478.045
475.414
482.154
481.162
479.216
476.404
481.087
480.151
478.136
475.481
482.559
481.389
479.372
476.527
481.431
480.325
478.233
475.548
483.332
481.83
479.589
476.631
482.311
480.835
478.555
475.767
482.952
481.607
479.475
476.571
481.873
480.578
478.392
475.66
483.676
482.038
479.695
476.683
482.717
481.079
478.704
475.885
484.007
482.253
479.841
476.802
483.091
481.317
478.861
476.01
467.722
462.08
457.303
453.444
450.498
467.36
461.785
457.026
453.175
450.233
467.77
462.104
457.319
453.455
450.508
467.438
461.838
457.068
453.211
450.267
467.851
462.14
457.342
453.474
450.524
467.698
462.057
457.269
453.402
450.452
467.559
461.913
457.12
453.251
450.301
467.648
461.977
457.168
453.288
450.334
467.906
462.171
457.361
453.487
450.535
467.615
461.758
456.937
453.068
450.122
467.838
462.069
457.26
453.39
450.441
467.522
461.661
456.846
452.982
450.039
467.914
462.174
457.356
453.476
450.522
467.586
461.716
456.888
453.015
450.068
468.007
462.235
457.4
453.512
450.553
467.611
461.713
456.872
452.992
450.042
467.687
461.953
457.165
453.307
450.364
467.267
461.457
456.672
452.825
449.891
467.695
461.941
457.147
453.287
450.343
467.273
461.45
456.662
452.813
449.877
467.69
461.9
457.098
453.235
450.29
467.271
461.429
456.634
452.783
449.847
467.567
461.721
456.912
453.05
450.107
467.202
461.343
456.544
452.692
449.756
467.315
461.454
456.647
452.79
449.851
446.205
445.355
446.627
445.754
447.366
446.396
448.314
447.17
449.277
447.941
450.832
449.302
450.048
448.543
451.595
450.128
452.378
451.048
437.179
427.398
419.255
412.975
408.718
437.317
427.471
419.239
412.921
408.596
437.373
427.501
419.319
413.022
408.758
437.488
427.545
419.298
412.939
408.622
437.743
427.706
419.451
413.118
408.839
437.846
427.743
419.424
413.031
408.7
438.245
428.001
419.646
413.261
408.959
438.306
428.012
419.601
413.16
408.807
438.836
428.376
419.901
413.45
409.118
438.806
428.33
419.818
413.323
408.945
440.111
429.296
420.575