/*--------------------------------*- C++ -*----------------------------------*\
  =========                 |
  \\      /  F ield         | OpenFOAM: The Open Source CFD Toolbox
   \\    /   O peration     | Website:  https://openfoam.org
    \\  /    A nd           | Version:  12
     \\/     M anipulation  |
\*---------------------------------------------------------------------------*/
FoamFile
{
    format      ascii;
    class       volScalarField;
    location    "355";
    object      T;
}
// * * * * * * * * * * * * * * * * * * * * * * * * * * * * * * * * * * * * * //

dimensions      [];

internalField   nonuniform List<scalar> 
4480
(
1.454e-07
1.19431e-05
0.00381133
0.0438105
0.131475
0.237194
0.339561
0.429628
0.50535
0.567629
0.618342
0.659482
0.692829
0.719876
0.74182
0.759615
0.77401
0.785601
0.794849
0.802121
0.807713
0.811854
0.814732
0.816493
0.817257
0.817122
0.816168
0.81477
0.813354
0.811913
0.810441
0.80893
0.80737
0.805756
0.804077
0.802328
0.800499
0.798582
0.796565
0.794442
0.792205
0.789838
0.78733
0.784675
0.781858
0.778863
0.77568
0.772297
0.768695
0.764858
0.760776
0.756434
0.751805
0.746881
0.74164
0.736063
0.730137
0.723844
0.717157
0.710066
0.702543
0.694576
0.686141
0.677223
0.667793
0.657844
0.647339
0.636273
0.624604
0.612324
0.599391
0.585781
0.571454
0.55637
0.540481
0.523734
0.506074
0.487441
0.467784
0.447063
0.425259
0.402385
0.378496
0.353817
0.328544
0.302906
0.277181
0.251683
0.226746
0.202704
0.179869
0.158515
0.138862
0.121064
0.105209
0.0913155
0.0793447
0.0692059
0.0607726
0.0538946
0.0484115
0.0441653
0.0410089
0.0388169
0.0374872
0.0369478
0.0371588
0.038114
0.0398429
0.0424135
0.0459344
0.0505594
0.0564912
0.0639876
0.0733628
0.0849923
0.0993048
0.116776
0.137917
0.163337
0.194036
0.231996
0.280521
0.347043
0.459145
0.637863
0.77693
0.893978
0.873452
0.704427
0.561738
0.386175
0.256924
0.172173
0.110675
0.0660938
0.0350882
0.0152112
0.0045232
0.000519596
6.6604e-08
0.000520509
0.0332428
0.163823
0.332631
0.484006
0.602382
0.690091
0.75394
0.800425
0.834577
0.860004
0.879218
0.893943
0.905356
0.914292
0.921328
0.926876
0.93124
0.934646
0.93726
0.939205
0.940582
0.94146
0.941903
0.94195
0.941639
0.940841
0.939479
0.937606
0.935276
0.932541
0.929452
0.926055
0.92239
0.918501
0.91442
0.91018
0.905804
0.901318
0.896741
0.892087
0.887363
0.882584
0.877754
0.872871
0.867941
0.862957
0.857915
0.852811
0.847636
0.842386
0.837046
0.831606
0.826059
0.820386
0.814585
0.808637
0.80253
0.796258
0.7898
0.783154
0.776299
0.769231
0.761937
0.754411
0.746635
0.7386
0.730302
0.721732
0.712874
0.703723
0.694265
0.684493
0.674388
0.663944
0.653143
0.641967
0.630409
0.618442
0.606048
0.593215
0.579913
0.566151
0.551935
0.537246
0.522079
0.506445
0.490351
0.473832
0.456932
0.439716
0.42227
0.404703
0.387145
0.369742
0.352667
0.336095
0.32022
0.305238
0.291346
0.278731
0.267577
0.258054
0.250325
0.244536
0.240836
0.23936
0.240257
0.243677
0.249786
0.258765
0.270816
0.286154
0.305005
0.327594
0.354136
0.384832
0.419883
0.45955
0.504293
0.554878
0.612221
0.677092
0.749239
0.822992
0.886364
0.930909
0.907329
0.797381
0.683274
0.564271
0.448365
0.341134
0.245189
0.162941
0.0965392
0.0477052
0.0171159
0.00302567
1.5449e-05
0.00613821
0.118197
0.33474
0.532503
0.674685
0.768729
0.829675
0.86956
0.896348
0.91496
0.928378
0.938375
0.946033
0.952018
0.956759
0.960544
0.963569
0.965981
0.967885
0.969368
0.970489
0.971301
0.971845
0.972149
0.972237
0.97213
0.971791
0.971175
0.97029
0.969142
0.967728
0.966053
0.964112
0.961916
0.959466
0.956775
0.953851
0.950708
0.947359
0.94382
0.940107
0.936236
0.93222
0.928073
0.923813
0.919445
0.914984
0.910435
0.905809
0.901113
0.896347
0.891514
0.886616
0.881658
0.876631
0.871543
0.866385
0.861155
0.855852
0.850471
0.84501
0.839462
0.833827
0.8281
0.822274
0.816349
0.810321
0.804181
0.797936
0.791567
0.785086
0.778481
0.771752
0.764888
0.757896
0.750769
0.743499
0.736087
0.728533
0.720825
0.712969
0.704952
0.696781
0.688453
0.679979
0.671356
0.662584
0.653662
0.644604
0.635415
0.62611
0.616714
0.607246
0.597749
0.588269
0.578863
0.5696
0.560571
0.551877
0.543636
0.535985
0.529083
0.523093
0.518208
0.514623
0.512542
0.512179
0.513752
0.517461
0.523506
0.532062
0.543285
0.557288
0.574147
0.593878
0.616456
0.641786
0.669734
0.700126
0.732753
0.767321
0.803314
0.839785
0.875182
0.907144
0.932559
0.947603
0.930112
0.858469
0.777601
0.687153
0.587768
0.48176
0.373062
0.267187
0.171018
0.0920814
0.036919
0.00783878
0.000329422
0.0328192
0.26001
0.517989
0.69676
0.803058
0.864139
0.89993
0.921964
0.936474
0.946739
0.95447
0.960556
0.965465
0.969469
0.972744
0.975419
0.977587
0.97933
0.980715
0.981796
0.98262
0.983224
0.983641
0.983893
0.983999
0.983974
0.983806
0.983484
0.98301
0.982384
0.981602
0.98066
0.979552
0.978268
0.976807
0.975163
0.973328
0.971307
0.969096
0.9667
0.964122
0.961369
0.95845
0.955372
0.952148
0.948785
0.945297
0.941692
0.937983
0.934179
0.930286
0.926319
0.922279
0.918179
0.914022
0.909815
0.905557
0.901261
0.896921
0.892547
0.888132
0.883687
0.87921
0.874698
0.870154
0.865581
0.860973
0.856335
0.851661
0.846952
0.842212
0.837433
0.832619
0.827765
0.822871
0.817939
0.81297
0.807958
0.802901
0.797806
0.792673
0.787506
0.782283
0.777027
0.77174
0.766426
0.761096
0.755755
0.750412
0.745079
0.739775
0.73452
0.729331
0.724243
0.719279
0.714488
0.709905
0.705585
0.70159
0.697987
0.694851
0.69227
0.690339
0.689169
0.68886
0.689543
0.691333
0.694354
0.698722
0.704548
0.711921
0.720914
0.73157
0.743891
0.757846
0.77336
0.79031
0.808527
0.82779
0.847817
0.868227
0.888498
0.907913
0.925531
0.940153
0.950227
0.953592
0.941149
0.893681
0.836343
0.768732
0.688448
0.594149
0.486562
0.369547
0.251218
0.143747
0.0613121
0.0139722
0.00277566
0.103701
0.432933
0.679043
0.812092
0.879075
0.913754
0.933201
0.945395
0.954045
0.960821
0.966441
0.971186
0.975182
0.978509
0.981241
0.983458
0.985232
0.98663
0.987716
0.988545
0.989163
0.989609
0.989913
0.990101
0.99019
0.990192
0.990103
0.98991
0.989615
0.989218
0.988719
0.988117
0.987406
0.986583
0.98564
0.98457
0.98337
0.982031
0.980552
0.978925
0.977154
0.975232
0.973165
0.970953
0.968602
0.966118
0.963505
0.960773
0.95793
0.954984
0.951945
0.948821
0.945622
0.942358
0.939038
0.935668
0.932252
0.928804
0.925325
0.921822
0.918301
0.914768
0.911226
0.907672
0.90412
0.900564
0.897007
0.893454
0.889904
0.886357
0.882811
0.879273
0.875737
0.872208
0.86868
0.86516
0.861641
0.858123
0.854613
0.851106
0.847605
0.844114
0.840618
0.837129
0.833653
0.830192
0.826751
0.823342
0.819973
0.816654
0.813397
0.810223
0.807146
0.804187
0.801372
0.798731
0.796295
0.794098
0.792186
0.790598
0.789385
0.788604
0.788312
0.788569
0.789445
0.791001
0.793305
0.796421
0.800414
0.805325
0.811202
0.818063
0.825918
0.834746
0.844497
0.855102
0.866449
0.878393
0.890741
0.90325
0.915613
0.92743
0.938196
0.947279
0.953891
0.956988
0.955089
0.944882
0.912667
0.870149
0.819221
0.756441
0.677894
0.580292
0.462943
0.331286
0.199097
0.0883633
0.0205538
0.0131328
0.228604
0.604301
0.798208
0.881849
0.919066
0.937713
0.948734
0.956522
0.962898
0.968537
0.973551
0.977897
0.981555
0.984545
0.986934
0.988804
0.990234
0.991308
0.992092
0.992649
0.993033
0.993288
0.993446
0.993533
0.993568
0.993561
0.993514
0.993394
0.993207
0.992951
0.992625
0.992228
0.991757
0.991206
0.990571
0.989849
0.989032
0.988115
0.987096
0.985967
0.984725
0.983367
0.981892
0.980299
0.978588
0.976762
0.974822
0.972776
0.970626
0.968381
0.966046
0.963631
0.961142
0.958587
0.955976
0.953318
0.950618
0.947883
0.945123
0.942349
0.939558
0.936763
0.933965
0.93117
0.928384
0.925607
0.922845
0.920102
0.917373
0.914665
0.911976
0.909311
0.906669
0.904046
0.901447
0.898868
0.896314
0.893783
0.891272
0.888783
0.886322
0.883886
0.881469
0.879067
0.876693
0.874349
0.872039
0.869767
0.867542
0.865375
0.863274
0.86125
0.859316
0.857491
0.855792
0.85424
0.85286
0.851672
0.850705
0.849996
0.849571
0.849471
0.849734
0.850395
0.8515
0.853082
0.855189
0.85785
0.861097
0.864961
0.869449
0.874569
0.88031
0.886646
0.893525
0.900882
0.908618
0.916609
0.924692
0.932669
0.940287
0.947236
0.953133
0.957509
0.959771
0.959143
0.954558
0.944514
0.922353
0.888935
0.849029
0.799627
0.73604
0.652268
0.542367
0.406132
0.254855
0.116633
0.0272136
0.0420155
0.392166
0.745496
0.872669
0.918645
0.938474
0.949223
0.956583
0.962708
0.968419
0.973853
0.978775
0.982969
0.986374
0.989042
0.991071
0.99256
0.993609
0.994307
0.994737
0.99497
0.995066
0.995076
0.995043
0.994991
0.99494
0.994896
0.994866
0.994801
0.994701
0.994563
0.994383
0.994157
0.993879
0.993547
0.99315
0.992689
0.992155
0.991545
0.990855
0.990078
0.989212
0.988256
0.987204
0.986058
0.984813
0.983471
0.982034
0.980506
0.978887
0.977183
0.975401
0.973544
0.971618
0.969634
0.967596
0.965511
0.96339
0.961238
0.959062
0.956869
0.954665
0.952457
0.95025
0.948051
0.945863
0.943687
0.941531
0.939395
0.937283
0.935195
0.933135
0.931098
0.929093
0.927116
0.925166
0.923243
0.921349
0.919487
0.917655
0.915847
0.914072
0.912332
0.910607
0.908911
0.907244
0.905607
0.904005
0.902442
0.900925
0.899457
0.898048
0.896709
0.895443
0.89427
0.893194
0.89224
0.891417
0.890744
0.890245
0.889935
0.889844
0.889994
0.890407
0.891113
0.892136
0.893503
0.895235
0.897353
0.899879
0.902816
0.906171
0.90994
0.914107
0.918638
0.923486
0.928591
0.933869
0.939208
0.944473
0.949495
0.954065
0.95793
0.960788
0.962257
0.96187
0.959029
0.952941
0.942587
0.925965
0.899131
0.866216
0.825905
0.774036
0.703907
0.605508
0.471896
0.308059
0.144929
0.0338813
0.102447
0.562175
0.841028
0.912038
0.936378
0.947974
0.955325
0.961243
0.966848
0.972532
0.978109
0.983052
0.987078
0.990175
0.992459
0.99407
0.995129
0.995741
0.996007
0.996017
0.995857
0.995598
0.995308
0.995029
0.994794
0.994624
0.994525
0.994495
0.994476
0.994459
0.994439
0.994405
0.994351
0.994268
0.994146
0.993979
0.993758
0.993481
0.993141
0.992729
0.992248
0.991689
0.991051
0.990333
0.98953
0.988648
0.987681
0.986631
0.985501
0.984295
0.983012
0.981658
0.980239
0.978759
0.977224
0.97564
0.974015
0.972354
0.970664
0.968953
0.967227
0.965487
0.963747
0.962008
0.960272
0.958549
0.95684
0.955151
0.953479
0.951831
0.95021
0.948616
0.947045
0.945508
0.943994
0.942511
0.941058
0.939633
0.93824
0.936875
0.935536
0.934234
0.932957
0.93171
0.930482
0.929282
0.928111
0.926969
0.925863
0.924799
0.923773
0.922799
0.921882
0.921023
0.920234
0.91953
0.918914
0.918403
0.918005
0.91774
0.917616
0.917657
0.91787
0.918281
0.918905
0.919753
0.92085
0.922202
0.923827
0.925728
0.927914
0.930375
0.933105
0.936084
0.939281
0.942652
0.946138
0.949665
0.953134
0.956432
0.959407
0.961891
0.963664
0.964476
0.964011
0.961889
0.957633
0.950649
0.940208
0.925465
0.904309
0.875928
0.841498
0.797757
0.738824
0.652651
0.526393
0.356338
0.172284
0.0406077
0.207059
0.704522
0.892501
0.930518
0.945133
0.953211
0.959098
0.964445
0.969993
0.975914
0.981747
0.986686
0.99045
0.993156
0.994999
0.996152
0.996734
0.99685
0.996608
0.996113
0.99547
0.994775
0.994103
0.993515
0.993049
0.992728
0.992555
0.992519
0.992543
0.992618
0.992728
0.99286
0.992997
0.99313
0.993243
0.993322
0.99336
0.993346
0.993273
0.993139
0.992935
0.992662
0.992313
0.991889
0.991387
0.990809
0.990153
0.989423
0.988619
0.987744
0.986801
0.985793
0.984725
0.983602
0.982427
0.981209
0.979949
0.978657
0.977337
0.975995
0.97464
0.973274
0.971901
0.97053
0.969164
0.967805
0.966461
0.965131
0.963819
0.962531
0.961264
0.960019
0.958801
0.957606
0.956439
0.9553
0.954186
0.953101
0.952041
0.95101
0.950002
0.949026
0.948076
0.947153
0.946246
0.945363
0.944507
0.943676
0.942875
0.942103
0.94137
0.940671
0.940021
0.939417
0.93887
0.938385
0.93797
0.937629
0.937381
0.937226
0.937183
0.937254
0.937456
0.9378
0.938297
0.938956
0.939792
0.940806
0.942006
0.943395
0.944975
0.946732
0.948658
0.95073
0.952918
0.955178
0.957463
0.959698
0.961799
0.963662
0.965159
0.966142
0.96642
0.965778
0.963954
0.96063
0.955422
0.947866
0.937418
0.923448
0.905259
0.881084
0.850517
0.812075
0.761295
0.685886
0.569118
0.398144
0.197995
0.0474854
0.355646
0.80069
0.913665
0.939482
0.950119
0.956542
0.961702
0.966843
0.972533
0.978818
0.984944
0.989784
0.99318
0.995429
0.996808
0.997474
0.99753
0.997069
0.996213
0.995094
0.993848
0.992601
0.991452
0.990479
0.989729
0.989223
0.988961
0.988914
0.988992
0.989177
0.989447
0.989779
0.990149
0.990536
0.990921
0.991286
0.991615
0.991897
0.992122
0.992283
0.992375
0.992391
0.99233
0.99219
0.991975
0.991682
0.991311
0.990865
0.990347
0.989761
0.989105
0.988388
0.987613
0.986783
0.985907
0.984988
0.984028
0.983038
0.982019
0.980976
0.97992
0.978852
0.977777
0.976701
0.975626
0.974558
0.9735
0.972456
0.971424
0.970412
0.969414
0.968442
0.967488
0.96656
0.965651
0.964766
0.963905
0.963066
0.962253
0.96146
0.960693
0.959949
0.959227
0.958531
0.957848
0.957188
0.956547
0.955926
0.955327
0.954757
0.954213
0.953699
0.953219
0.95278
0.952381
0.952029
0.951727
0.951486
0.951311
0.951204
0.951179
0.951237
0.95139
0.951646
0.952009
0.952487
0.953085
0.953803
0.954651
0.95562
0.956708
0.957905
0.959196
0.960561
0.961967
0.963375
0.964737
0.965987
0.967051
0.96783
0.968217
0.968072
0.967237
0.965519
0.9627
0.958505
0.952625
0.944682
0.934247
0.920811
0.903774
0.882398
0.855368
0.820387
0.775105
0.708061
0.600838
0.432769
0.221627
0.0546195
0.492394
0.856579
0.927145
0.944858
0.953333
0.958837
0.963592
0.968694
0.974631
0.981357
0.987768
0.992394
0.995329
0.997097
0.998009
0.998165
0.997619
0.996463
0.994842
0.992938
0.990931
0.98899
0.987247
0.985803
0.984706
0.983986
0.983632
0.983577
0.98373
0.984061
0.984536
0.98512
0.985779
0.986481
0.987197
0.987903
0.988576
0.989202
0.989769
0.990262
0.990679
0.991014
0.991261
0.991422
0.991496
0.991486
0.991392
0.991219
0.990968
0.990645
0.990253
0.989795
0.98928
0.988708
0.988086
0.987419
0.986714
0.985976
0.985206
0.984415
0.983606
0.982782
0.98195
0.981113
0.980275
0.97944
0.978612
0.97779
0.976983
0.976185
0.975406
0.974642
0.973895
0.973166
0.972454
0.971765
0.971092
0.97044
0.969807
0.96919
0.968595
0.968022
0.967464
0.966928
0.966408
0.9659
0.965407
0.964932
0.964478
0.964039
0.963625
0.963232
0.962863
0.962525
0.962215
0.961944
0.961709
0.961516
0.961368
0.961276
0.961238
0.961261
0.961346
0.961507
0.961736
0.962047
0.962433
0.962901
0.963447
0.964068
0.964756
0.965499
0.966278
0.967076
0.967862
0.968594
0.96923
0.969706
0.969954
0.969891
0.969414
0.968399
0.966705
0.964166
0.960588
0.955742
0.949363
0.941142
0.930717
0.917651
0.901402
0.881262
0.856246
0.824785
0.783078
0.721985
0.623067
0.460224
0.242986
0.062118
0.618916
0.888424
0.935855
0.949114
0.955705
0.960454
0.964971
0.970119
0.976364
0.983571
0.99026
0.994545
0.996958
0.998264
0.998723
0.998323
0.997055
0.995025
0.992434
0.989531
0.98657
0.983771
0.981306
0.979295
0.9778
0.976843
0.976405
0.976359
0.976623
0.977153
0.977898
0.978807
0.979832
0.980926
0.98205
0.983171
0.984261
0.985297
0.98626
0.987138
0.987922
0.988611
0.989199
0.989682
0.990067
0.990353
0.990544
0.990644
0.990658
0.990591
0.990448
0.990234
0.989956
0.989618
0.989226
0.988785
0.988302
0.987782
0.987231
0.986652
0.986052
0.985435
0.984805
0.984166
0.983525
0.98288
0.982238
0.981601
0.98097
0.980349
0.979738
0.97914
0.978553
0.977981
0.977424
0.976881
0.976355
0.975841
0.975343
0.97486
0.974394
0.973944
0.973507
0.973087
0.972676
0.972281
0.971892
0.971519
0.97116
0.970812
0.970481
0.970167
0.969871
0.969593
0.96934
0.969111
0.968908
0.968735
0.968595
0.968487
0.968418
0.968391
0.968408
0.968468
0.968575
0.96873
0.968931
0.96918
0.96947
0.969795
0.970146
0.970511
0.970873
0.971206
0.971481
0.971666
0.971713
0.97157
0.971166
0.970426
0.969257
0.967548
0.965172
0.961985
0.957816
0.952463
0.945703
0.937269
0.926841
0.914031
0.898331
0.879057
0.855242
0.825359
0.786269
0.729958
0.637568
0.481044
0.262066
0.070094
0.721027
0.907946
0.941799
0.952154
0.957635
0.961695
0.965952
0.971185
0.977761
0.985481
0.992435
0.996263
0.998136
0.999032
0.999051
0.998004
0.995831
0.992683
0.988858
0.984705
0.980566
0.976727
0.973404
0.970739
0.9688
0.967602
0.967107
0.967102
0.967535
0.968339
0.969441
0.970771
0.972258
0.973843
0.97547
0.977095
0.978682
0.9802
0.981628
0.982951
0.984159
0.985245
0.986208
0.987048
0.987768
0.988369
0.988861
0.989245
0.989528
0.989719
0.989823
0.989848
0.989796
0.989679
0.989501
0.989268
0.988988
0.988664
0.988307
0.987913
0.987497
0.987058
0.986602
0.986135
0.985655
0.985174
0.984686
0.9842
0.983717
0.983237
0.982764
0.982299
0.981842
0.981393
0.980956
0.980528
0.980111
0.979705
0.979312
0.97893
0.978557
0.978195
0.977848
0.97751
0.977182
0.97686
0.976548
0.976243
0.975949
0.975661
0.975385
0.975122
0.974868
0.974626
0.974402
0.974193
0.973998
0.973825
0.973671
0.973536
0.973428
0.973344
0.973282
0.973249
0.97324
0.973254
0.973288
0.973344
0.973409
0.97348
0.973546
0.973591
0.973596
0.973543
0.973397
0.973125
0.972684
0.972025
0.971084
0.969788
0.968051
0.965781
0.962854
0.959143
0.954501
0.948744
0.94168
0.93307
0.92263
0.909993
0.894678
0.876017
0.853067
0.824337
0.786817
0.733
0.645093
0.494943
0.278676
0.0786633
0.77644
0.926366
0.946002
0.95433
0.959001
0.962737
0.966657
0.971926
0.97884
0.987092
0.994313
0.997586
0.998939
0.999505
0.99907
0.997226
0.99389
0.989314
0.983941
0.978252
0.972695
0.967628
0.963317
0.959925
0.957519
0.956098
0.9556
0.955694
0.956376
0.95755
0.95912
0.960984
0.963051
0.965238
0.967475
0.969704
0.971875
0.973955
0.975922
0.977751
0.979437
0.980971
0.982352
0.983582
0.984666
0.985608
0.986417
0.987099
0.987663
0.988117
0.98847
0.988731
0.988905
0.989002
0.98903
0.988992
0.988903
0.988762
0.988579
0.988358
0.988103
0.987823
0.98752
0.987201
0.986865
0.98652
0.986166
0.985808
0.985447
0.985086
0.984726
0.984368
0.984013
0.983666
0.983324
0.982985
0.982658
0.982333
0.982019
0.981708
0.981409
0.981114
0.98083
0.980552
0.980282
0.980014
0.979751
0.979494
0.97924
0.978992
0.978748
0.978511
0.978281
0.978058
0.977842
0.977635
0.977435
0.977246
0.977069
0.976901
0.976743
0.976597
0.976459
0.976331
0.97621
0.976095
0.975979
0.975858
0.975728
0.975576
0.975392
0.975158
0.974861
0.974473
0.973967
0.973309
0.97246
0.971366
0.969972
0.968211
0.966004
0.963261
0.959878
0.955741
0.950707
0.944622
0.937311
0.928555
0.918089
0.905566
0.89052
0.872297
0.849973
0.822088
0.785722
0.73371
0.649021
0.503672
0.290098
0.0851756
0.812725
0.932887
0.949039
0.955852
0.9599
0.963385
0.967289
0.972363
0.979603
0.988399
0.995904
0.998551
0.99945
0.999772
0.998828
0.99596
0.991128
0.984757
0.977481
0.96995
0.962726
0.956253
0.950839
0.946663
0.943792
0.942199
0.941783
0.942063
0.943106
0.944782
0.946956
0.949492
0.952269
0.955183
0.958142
0.961076
0.963927
0.966655
0.969227
0.971625
0.97384
0.975866
0.977703
0.979356
0.98083
0.982134
0.98328
0.984272
0.985127
0.985852
0.986459
0.986957
0.987356
0.987665
0.987893
0.988048
0.988137
0.98817
0.988151
0.988088
0.987984
0.987848
0.987683
0.987494
0.987285
0.98706
0.986821
0.986572
0.986316
0.986052
0.985786
0.98552
0.985252
0.984984
0.984717
0.984453
0.98419
0.983931
0.983674
0.983421
0.983173
0.982931
0.982691
0.982456
0.982223
0.981992
0.98176
0.981533
0.981303
0.981078
0.980851
0.980626
0.980404
0.980185
0.979965
0.979749
0.979533
0.979319
0.979109
0.978897
0.978687
0.978476
0.97826
0.978041
0.977815
0.977577
0.977323
0.977044
0.976734
0.976382
0.975976
0.975502
0.974937
0.974259
0.973438
0.972447
0.971242
0.969777
0.967997
0.96584
0.963235
0.960096
0.956334
0.951835
0.946476
0.940122
0.932605
0.923721
0.913222
0.900769
0.885907
0.867996
0.84613
0.81887
0.783358
0.732652
0.650277
0.508526
0.297494
0.0897937
0.8387
0.937825
0.951474
0.956839
0.960364
0.963657
0.967606
0.972725
0.980051
0.989391
0.997221
0.999213
0.999747
0.999908
0.998343
0.994147
0.987411
0.978829
0.969277
0.959591
0.950462
0.942413
0.9358
0.930817
0.92752
0.925843
0.925419
0.926022
0.9276
0.929968
0.932938
0.93633
0.939989
0.943779
0.947592
0.951342
0.954966
0.958416
0.961662
0.964684
0.967474
0.970029
0.972353
0.974453
0.976338
0.978021
0.979515
0.980833
0.981985
0.982986
0.983851
0.984588
0.98521
0.985728
0.986153
0.986492
0.986757
0.986954
0.987091
0.987175
0.987212
0.987209
0.987171
0.9871
0.987003
0.986886
0.986748
0.986595
0.98643
0.986253
0.986067
0.985873
0.985676
0.985473
0.985268
0.985061
0.984853
0.984642
0.984431
0.984223
0.984011
0.983801
0.983593
0.983387
0.98318
0.982969
0.982759
0.982544
0.98233
0.982111
0.98189
0.981668
0.98144
0.981212
0.98098
0.980744
0.980502
0.980257
0.980005
0.979746
0.979481
0.9792
0.978909
0.978602
0.978271
0.977917
0.977531
0.977107
0.976634
0.976102
0.975496
0.974804
0.974001
0.973065
0.971974
0.970689
0.969174
0.967386
0.965273
0.962774
0.959828
0.956351
0.952264
0.947463
0.941835
0.935252
0.92756
0.918566
0.908027
0.895615
0.880876
0.863186
0.841655
0.814859
0.779979
0.730221
0.649496
0.510432
0.301727
0.0928075
0.857945
0.941358
0.952864
0.957365
0.960432
0.96354
0.967561
0.972988
0.980239
0.990061
0.998281
0.999628
0.999901
0.999969
0.997606
0.9917
0.982597
0.971355
0.959144
0.946999
0.935739
0.925966
0.918082
0.912299
0.908654
0.907031
0.906694
0.907796
0.910104
0.913364
0.917324
0.921755
0.926456
0.931265
0.936051
0.940717
0.945194
0.94943
0.953398
0.957085
0.96048
0.963588
0.966417
0.968978
0.971285
0.973355
0.975202
0.976845
0.978297
0.979576
0.980694
0.98167
0.982514
0.983238
0.983855
0.984377
0.984807
0.985162
0.985447
0.98567
0.98584
0.985958
0.986036
0.986076
0.986083
0.986061
0.986014
0.985944
0.985857
0.985753
0.985637
0.985506
0.985367
0.985217
0.985063
0.9849
0.984732
0.98456
0.984384
0.984204
0.984021
0.983836
0.983647
0.983455
0.983261
0.983064
0.98286
0.982652
0.982439
0.982219
0.981993
0.98176
0.981522
0.981276
0.981022
0.980759
0.980486
0.980203
0.979906
0.979595
0.979267
0.978921
0.978551
0.978154
0.977727
0.97726
0.976752
0.976189
0.975566
0.974868
0.974081
0.973191
0.972174
0.971012
0.969673
0.968129
0.966342
0.96427
0.961867
0.959075
0.955833
0.952069
0.947704
0.942646
0.936786
0.930011
0.922172
0.913078
0.902495
0.890099
0.875442
0.857909
0.836622
0.810174
0.775769
0.726688
0.647133
0.510065
0.303469
0.094498
0.872464
0.943844
0.953594
0.957462
0.960094
0.963025
0.96712
0.972871
0.980411
0.990394
0.999087
0.999859
0.99997
0.999992
0.996593
0.988517
0.976539
0.962178
0.946938
0.932054
0.918458
0.906826
0.897618
0.891072
0.887204
0.885827
0.885895
0.887731
0.891013
0.895395
0.900554
0.906201
0.912091
0.918033
0.923878
0.929527
0.934901
0.93996
0.944671
0.949032
0.95304
0.956703
0.960036
0.963056
0.965781
0.968233
0.970428
0.97239
0.974136
0.975687
0.977056
0.978261
0.979318
0.980242
0.981043
0.981734
0.98233
0.982832
0.983259
0.983612
0.983904
0.984136
0.984321
0.98446
0.984561
0.984624
0.984658
0.984662
0.984644
0.984603
0.984544
0.984467
0.984377
0.98427
0.984155
0.984028
0.983892
0.983747
0.983594
0.983434
0.98327
0.983095
0.982917
0.982735
0.982545
0.982351
0.982145
0.981934
0.981713
0.981483
0.981243
0.980995
0.980734
0.980465
0.980182
0.979886
0.979576
0.979249
0.978904
0.978536
0.978146
0.97773
0.977281
0.976799
0.976275
0.975703
0.975075
0.974386
0.97362
0.972767
0.971815
0.970744
0.969534
0.968162
0.966605
0.96483
0.962802
0.960484
0.957824
0.954774
0.951276
0.947262
0.942661
0.93738
0.93133
0.924392
0.916423
0.907244
0.896618
0.884223
0.869617
0.852194
0.831088
0.804903
0.77085
0.72226
0.643508
0.507914
0.303251
0.0951185
0.883511
0.945542
0.953836
0.957101
0.959353
0.962081
0.96625
0.972359
0.980488
0.990457
0.999646
0.999964
0.999993
0.999998
0.995266
0.9845
0.969104
0.951178
0.932574
0.914703
0.898587
0.884967
0.874384
0.867139
0.86324
0.862154
0.862946
0.865903
0.870553
0.876418
0.883069
0.890152
0.897386
0.90456
0.911525
0.918179
0.924458
0.930326
0.935766
0.940778
0.945373
0.949566
0.953378
0.956832
0.95995
0.962763
0.965288
0.967552
0.969573
0.971377
0.972983
0.974409
0.975666
0.976778
0.977754
0.978607
0.97935
0.979997
0.980551
0.981027
0.981428
0.981767
0.982048
0.982278
0.982459
0.982601
0.982703
0.982773
0.982814
0.982827
0.982816
0.982783
0.982733
0.982663
0.982576
0.982477
0.982363
0.982236
0.982097
0.98195
0.981794
0.981626
0.981449
0.981264
0.981071
0.980871
0.980656
0.980432
0.980197
0.979951
0.979692
0.979418
0.979133
0.978832
0.978515
0.978181
0.977827
0.977452
0.977054
0.976628
0.976174
0.975687
0.975161
0.974593
0.973973
0.973298
0.972559
0.971747
0.97085
0.969852
0.968746
0.967508
0.966121
0.964564
0.96281
0.960825
0.958583
0.956042
0.953158
0.949884
0.946164
0.941936
0.937129
0.931667
0.925453
0.918375
0.910301
0.901045
0.890378
0.87797
0.863397
0.846054
0.825086
0.799104
0.765321
0.717072
0.63886
0.504351
0.301492
0.0948861
0.891914
0.946582
0.953602
0.956221
0.958192
0.960685
0.964908
0.971401
0.98017
0.990514
0.999951
0.999997
1
1
0.993582
0.979548
0.960189
0.938287
0.916038
0.894983
0.876179
0.860423
0.848389
0.840538
0.836884
0.835631
0.837701
0.842421
0.849054
0.856917
0.865449
0.874227
0.882953
0.891427
0.899519
0.907154
0.914285
0.920904
0.927003
0.932604
0.937724
0.94239
0.946626
0.950465
0.953933
0.957065
0.959885
0.962419
0.96469
0.966724
0.968541
0.970162
0.971604
0.972884
0.974017
0.975017
0.975897
0.976669
0.977342
0.977927
0.978431
0.978863
0.979229
0.979539
0.979793
0.979999
0.980163
0.98029
0.980379
0.980436
0.980466
0.980467
0.980446
0.980402
0.980337
0.980255
0.980156
0.98004
0.979908
0.979766
0.979608
0.979437
0.979255
0.979064
0.978859
0.978645
0.978416
0.978172
0.977915
0.977645
0.977357
0.977055
0.976738
0.9764
0.976044
0.975666
0.975266
0.974839
0.974385
0.9739
0.973379
0.972819
0.972215
0.97156
0.970848
0.970075
0.969228
0.9683
0.967276
0.966148
0.964896
0.963506
0.961958
0.960229
0.958295
0.956128
0.953696
0.950958
0.947874
0.944406
0.940493
0.936081
0.931102
0.925485
0.919134
0.911943
0.90378
0.894457
0.883747
0.871329
0.856773
0.839484
0.818628
0.792817
0.759247
0.711236
0.633365
0.499652
0.298514
0.0939804
0.898215
0.9471
0.953002
0.955003
0.956593
0.958796
0.96305
0.96995
0.979448
0.990566
1
0.999999
0.999998
0.999999
0.991502
0.973579
0.949721
0.923501
0.897414
0.87305
0.851408
0.833301
0.819635
0.811276
0.808268
0.808096
0.812039
0.819078
0.828153
0.838337
0.848937
0.859485
0.869692
0.879392
0.888508
0.896993
0.904852
0.912089
0.918729
0.924804
0.930345
0.935388
0.939967
0.944118
0.947872
0.951267
0.954327
0.957082
0.959562
0.961791
0.963785
0.965573
0.967171
0.968596
0.969863
0.97099
0.971988
0.972869
0.973645
0.974324
0.974915
0.975425
0.975867
0.976243
0.976558
0.976822
0.977035
0.977205
0.977334
0.977426
0.977484
0.97751
0.977511
0.977483
0.977433
0.977359
0.977263
0.977152
0.977019
0.976872
0.976706
0.976528
0.976333
0.976125
0.975903
0.975668
0.975414
0.975146
0.974861
0.974561
0.974243
0.973904
0.973547
0.97317
0.972769
0.972344
0.971892
0.971413
0.9709
0.97035
0.969763
0.969128
0.968445
0.967709
0.966907
0.966036
0.965087
0.964045
0.962906
0.961651
0.960265
0.958736
0.957038
0.955155
0.95306
0.950726
0.948121
0.945212
0.941959
0.938318
0.934241
0.929673
0.924549
0.918802
0.912341
0.905056
0.896818
0.887444
0.876698
0.864264
0.849715
0.832478
0.811719
0.786057
0.752669
0.704827
0.627147
0.494029
0.294569
0.0925487
0.9028
0.947187
0.952076
0.953413
0.954531
0.95638
0.960621
0.967948
0.978274
0.990385
1
1
0.999998
0.999997
0.988998
0.966515
0.937665
0.906896
0.876917
0.849233
0.824626
0.803824
0.788076
0.779277
0.775691
0.77801
0.785724
0.796729
0.809294
0.822278
0.835027
0.847211
0.858659
0.869316
0.87918
0.888269
0.896618
0.904271
0.911269
0.917655
0.923477
0.928771
0.93358
0.937942
0.941898
0.945476
0.948709
0.951631
0.954264
0.956637
0.95877
0.960687
0.962406
0.963945
0.965323
0.966547
0.967638
0.968606
0.969464
0.970217
0.970877
0.971453
0.971952
0.972381
0.972746
0.973052
0.973301
0.973503
0.973662
0.973776
0.973856
0.973897
0.973907
0.973887
0.973841
0.973768
0.97367
0.973551
0.973411
0.973251
0.973072
0.972874
0.97266
0.972428
0.972181
0.971919
0.971636
0.971337
0.971019
0.970681
0.970324
0.969946
0.969546
0.969122
0.968673
0.968195
0.967691
0.967152
0.966576
0.965963
0.965305
0.9646
0.963837
0.963016
0.962126
0.961163
0.960112
0.958966
0.957714
0.956341
0.954833
0.953172
0.951339
0.949316
0.947077
0.944594
0.941838
0.938778
0.935377
0.931591
0.927373
0.922678
0.917438
0.911585
0.905033
0.897676
0.889378
0.879958
0.869181
0.856734
0.8422
0.825011
0.804346
0.778831
0.745607
0.69789
0.620304
0.487637
0.289847
0.0907071
0.905915
0.946903
0.950834
0.951338
0.951765
0.953399
0.957569
0.96533
0.976586
0.989924
0.999997
0.999997
0.999998
0.999996
0.986039
0.958285
0.924025
0.888659
0.85495
0.824148
0.796553
0.772543
0.753607
0.743993
0.740791
0.748696
0.76307
0.77958
0.795937
0.811337
0.82561
0.838769
0.850865
0.861964
0.872139
0.881456
0.88998
0.897775
0.904894
0.911388
0.917311
0.922708
0.927614
0.932072
0.936119
0.939795
0.943123
0.946135
0.948858
0.951318
0.953537
0.955536
0.957335
0.958951
0.9604
0.961696
0.962853
0.963881
0.964795
0.965603
0.966312
0.966931
0.967471
0.967935
0.968329
0.968664
0.968938
0.969158
0.969332
0.969457
0.969542
0.969589
0.969599
0.969577
0.969524
0.969444
0.969332
0.969198
0.969041
0.968859
0.968659
0.968434
0.968193
0.967932
0.967653
0.967356
0.967036
0.966699
0.966341
0.965961
0.965559
0.965135
0.964686
0.964212
0.963711
0.96318
0.962614
0.962015
0.961377
0.960695
0.959967
0.959185
0.958346
0.957444
0.956466
0.955412
0.954265
0.953018
0.95166
0.950177
0.948555
0.946773
0.944819
0.942668
0.940298
0.937684
0.934797
0.931607
0.928075
0.92417
0.91984
0.915037
0.909703
0.903769
0.897148
0.889734
0.881387
0.871934
0.861136
0.848685
0.834171
0.817043
0.796489
0.771127
0.738073
0.690459
0.6129
0.480588
0.284492
0.088544
0.907697
0.946316
0.949342
0.948865
0.948363
0.949835
0.953838
0.962017
0.974304
0.989171
1
1
0.999998
1
0.982596
0.948815
0.908857
0.869125
0.832215
0.798936
0.768735
0.741126
0.71659
0.697612
0.705345
0.731699
0.755638
0.774234
0.791363
0.807206
0.821897
0.834953
0.846869
0.857751
0.867707
0.876821
0.885163
0.892794
0.899777
0.906159
0.911993
0.917315
0.922175
0.926596
0.930624
0.934287
0.937619
0.940642
0.943384
0.945869
0.948112
0.950142
0.951972
0.953621
0.955103
0.956432
0.957619
0.958681
0.959622
0.960456
0.96119
0.961831
0.962388
0.962867
0.963277
0.963617
0.963899
0.964124
0.964296
0.96442
0.964501
0.964538
0.964536
0.9645
0.96443
0.964326