/*--------------------------------*- C++ -*----------------------------------*\
  =========                 |
  \\      /  F ield         | OpenFOAM: The Open Source CFD Toolbox
   \\    /   O peration     | Website:  https://openfoam.org
    \\  /    A nd           | Version:  13
     \\/     M anipulation  |
\*---------------------------------------------------------------------------*/
FoamFile
{
    format      ascii;
    class       volScalarField;
    location    "534.831886";
    object      T;
}
// * * * * * * * * * * * * * * * * * * * * * * * * * * * * * * * * * * * * * //

dimensions      [0 0 0 1 0 0 0];

internalField   nonuniform List<scalar> 
5712
(
315.629
315.667
315.73
315.788
315.878
315.939
316.081
316.131
316.036
316.094
315.877
315.934
315.759
315.813
315.669
315.71
315.929
316.007
316.031
316.139
316.176
316.275
316.272
316.398
315.502
315.292
315.542
315.345
315.598
315.396
315.661
315.47
315.818
315.701
315.926
315.778
315.526
315.649
316.158
316.347
316.264
316.405
316.385
316.545
316.51
316.632
315.945
316.14
316.058
316.206
315.773
315.962
315.051
314.905
315.151
314.999
315.156
314.973
315.275
315.106
315.31
315.064
315.496
315.265
315.641
315.413
315.81
315.577
315.991
316.026
316.154
316.173
316.319
316.362
316.451
316.495
315.867
315.829
315.678
315.675
316.293
316.295
316.42
316.397
316.571
316.606
316.683
316.701
316.023
315.958
316.163
316.063
315.585
315.308
315.489
315.181
315.383
315.101
315.328
315.01
315.753
315.483
315.621
315.318
315.904
315.636
315.726
315.427
314.707
314.393
314.655
314.345
314.805
314.51
314.709
314.412
314.968
314.74
314.801
314.556
315.763
316.148
315.412
315.149
314.864
316.088
315.681
315.263
314.982
314.676
316.197
315.834
315.483
315.152
314.827
314.103
313.954
313.951
313.82
314.249
314.078
314.051
313.909
314.505
314.313
314.222
314.053
315.99
315.829
315.546
315.332
315.137
314.916
314.812
314.595
314.386
314.172
316.123
315.992
315.718
315.495
315.338
315.088
314.962
314.694
314.49
314.212
315.918
315.672
316.098
315.878
316.317
316.236
316.479
316.428
315.693
315.408
315.519
315.216
316.25
316.03
316.35
316.141
316.61
316.561
316.705
316.666
315.852
315.562
315.952
315.669
315.235
314.896
314.672
314.267
315.094
314.737
314.575
314.176
315.365
315.037
314.763
314.365
315.487
315.156
314.89
314.513
313.896
313.821
313.697
313.871
313.831
313.716
313.99
313.9
313.767
313.942
313.895
313.772
314.183
314.067
313.919
314.051
313.986
313.847
315.631
315.407
315.172
315.1
314.903
314.695
314.702
314.53
314.346
314.417
314.27
314.095
314.139
314.052
313.888
315.806
315.554
315.286
315.197
314.935
314.672
314.785
314.551
314.314
314.453
314.271
314.061
314.146
314.035
313.847
316.615
316.696
316.688
316.793
316.417
316.516
316.5
316.624
316.643
316.8
316.664
316.809
316.693
316.833
316.729
316.859
316.846
316.775
316.892
316.809
316.867
316.925
316.876
316.973
316.724
316.831
316.895
316.989
316.961
317.049
316.961
317.052
316.959
317.1
316.933
317.063
316.983
317.127
316.978
317.109
317.007
317.163
317.049
317.189
317.081
317.202
317.159
317.256
316.799
316.869
316.896
316.972
316.591
316.651
316.703
316.767
317.03
317.121
316.945
317.029
316.989
317.062
317.081
317.141
316.808
316.867
316.909
316.954
317.112
317.2
317.197
317.271
317.142
317.26
317.217
317.284
317.072
317.202
317.137
317.217
317.209
317.312
317.287
317.343
317.284
317.368
317.349
317.393
316.946
316.87
317.082
317.004
316.95
316.87
317.093
317.012
316.958
316.885
317.112
317.039
316.724
316.476
316.879
317.003
317.134
316.421
316.665
316.808
316.93
317.07
316.526
316.768
316.942
317.058
317.151
316.742
316.568
316.875
316.706
316.754
316.588
316.896
316.734
316.783
316.625
316.938
316.786
316.347
316.211
316.607
316.468
316.754
316.612
316.869
316.724
317.001
316.858
316.479
316.396
316.727
316.643
316.896
316.797
317.003
316.884
317.084
316.939
316.878
316.841
316.984
316.974
316.653
316.623
316.779
316.783
317.115
317.071
317.023
316.956
317.066
317.077
317.144
317.163
316.877
316.901
316.964
316.998
317.189
317.163
317.259
317.24
317.193
317.112
317.224
317.105
317.11
317.009
317.16
317.025
317.261
317.198
317.281
317.175
317.32
317.264
317.332
317.239
316.333
316.101
315.883
316.417
316.155
315.935
316.367
316.131
315.908
316.457
316.192
315.963
316.417
316.185
315.958
316.521
316.243
315.998
316.029
315.806
315.566
316.282
316.049
315.803
316.423
316.18
315.929
316.523
316.28
316.036
316.591
316.297
316.03
316.247
316.003
315.729
316.487
316.237
315.961
316.62
316.355
316.071
316.678
316.399
316.112
316.658
316.35
316.056
317.153
317.045
316.777
316.294
317.109
316.994
316.717
316.23
317.173
317.061
316.792
316.303
317.145
317.022
316.743
316.253
317.199
317.08
316.822
316.347
317.21
317.078
316.803
316.318
317.203
317.057
316.762
316.266
317.233
317.07
316.763
316.263
317.26
317.119
316.849
316.368
317.251
317.101
316.853
316.419
317.216
317.09
316.845
316.399
317.203
317.067
316.837
316.428
317.295
317.141
316.85
316.351
317.293
317.13
316.867
316.423
317.332
317.164
316.862
316.365
317.33
317.156
316.885
316.442
317.144
317.048
316.804
316.348
317.081
316.999
316.79
316.391
317.15
317.051
316.81
316.357
317.084
316.998
316.79
316.395
317.158
317.053
316.819
316.379
317.097
317.003
316.794
316.404
317.161
317.047
316.825
316.41
317.11
317.006
316.8
316.42
317.155
317.033
316.82
316.439
316.983
316.914
316.725
316.439
316.875
316.813
316.62
316.351
316.996
316.921
316.731
316.445
316.887
316.819
316.624
316.354
317.018
316.933
316.738
316.45
316.91
316.83
316.63
316.359
317.051
316.95
316.751
316.461
316.94
316.846
316.639
316.366
317.092
316.974
316.767
316.474
316.976
316.864
316.649
316.372
317.172
317.019
316.789
316.485
317.066
316.916
316.682
316.395
317.133
316.996
316.778
316.478
317.021
316.89
316.666
316.384
317.208
317.041
316.8
316.49
317.108
316.941
316.698
316.407
317.242
317.063
316.815
316.502
317.147
316.966
316.714
316.42
315.567
314.985
314.492
314.094
313.789
315.53
314.955
314.464
314.066
313.763
315.572
314.987
314.494
314.095
313.79
315.537
314.96
314.467
314.069
313.765
315.58
314.991
314.496
314.097
313.792
315.564
314.982
314.488
314.089
313.784
315.55
314.967
314.473
314.074
313.769
315.559
314.974
314.478
314.077
313.772
315.586
314.994
314.498
314.098
313.793
315.556
314.951
314.454
314.055
313.75
315.579
314.984
314.487
314.088
313.783
315.546
314.941
314.445
314.046
313.742
315.586
314.994
314.497
314.097
313.792
315.552
314.947
314.449
314.049
313.745
315.596
315.001
314.502
314.101
313.795
315.555
314.947
314.447
314.047
313.742
315.563
314.971
314.477
314.079
313.775
315.519
314.92
314.426
314.029
313.726
315.564
314.97
314.476
314.077
313.773
315.52
314.92
314.426
314.028
313.725
315.563
314.966
314.471
314.072
313.768
315.52
314.917
314.423
314.025
313.722
315.551
314.948
314.452
314.053
313.749
315.513
314.909
314.413
314.016
313.712
315.524
314.92
314.424
314.026
313.722
313.312
313.223
313.353
313.263
313.43
313.329
313.528
313.41
313.628
313.489
313.789
313.63
313.708
313.552
313.868
313.716
313.949
313.811
312.373
311.356
310.51
309.858
309.417
312.387
311.363
310.508
309.852
309.404
312.392
311.366
310.516
309.862
309.421
312.404
311.371
310.514
309.854
309.407
312.43
311.387
310.53
309.872
309.429
312.441
311.391
310.527
309.864
309.415
312.482
311.418
310.55
309.887
309.441
312.489
311.419
310.545
309.877
309.426
312.543
311.457
310.576
309.907
309.458
312.54
311.452
310.568
309.894
309.44
312.675
311.552
310.646
309.961
309.505
312.661
311.538
310.631
309.943
309.484
312.609
311.503
310.61
309.932
309.48
312.598
311.492
310.596
309.915
309.459
312.741
311.602
310.684
309.992
309.532
312.732
311.592
310.672
309.977
309.514
312.808
311.653
310.724
310.024
309.56
312.808
311.649
310.717
310.013
309.545
316.865
316.725
316.591
316.751
316.515
316.539
316.548
316.581
316.505
316.549
316.316
316.367
316.212
316.27
316.353
316.401
316.406
316.44
316.414
316.44
316.732
316.756
316.256
316.067
316.014
315.993
316.164
316.313
316.105
316.33
315.92
315.651
316.263
316.199
315.987
316.2
316.112
316.088
316.481
316.474
316.344
316.379
316.441
316.479
316.419
316.351
316.116
316.155
316.253
316.293
316.656
316.695
316.603
316.632
316.556
316.553
316.405
316.24
316.412
316.996
317.128
317.181
317.168
317.087
316.954
317.066
317.112
317.087
316.983
316.392
316.454
316.459
316.403
316.283
316.197
316.254
316.254
316.195
316.074
316.146
316.206
316.208
316.151
316.031
316.122
316.179
316.179
316.12
316
316.298
316.359
316.363
316.306
316.186
316.6
316.771
316.859
316.872
316.813
316.409
316.594
316.687
316.701
316.633
316.536
316.667
316.733
316.724
316.629
316.201
316.378
316.463
316.469
316.387
315.923
316.104
316.19
316.196
316.114
316.428
316.522
316.558
316.525
316.417
316.389
316.507
316.563
316.545
316.446
316.171
316.284
316.336
316.316
316.216
316.354
316.437
316.463
316.423
316.312
316.275
316.368
316.402
316.368
316.261
316.239
316.319
316.342
316.301
316.189
316.745
316.89
316.962
316.963
316.893
316.658
316.768
316.817
316.795
316.693
316.502
316.588
316.616
316.577
316.466
316.53
316.609
316.63
316.586
316.472
316.603
316.694
316.725
316.689
316.58
316.633
316.715
316.738
316.695
316.582
316.563
316.633
316.646
316.596
316.478
316.494
316.564
316.576
316.526
316.409
316.257
316.325
316.337
316.287
316.171
316.292
316.356
316.363
316.309
316.191
316.401
316.477
316.495
316.45
316.336
316.436
316.507
316.521
316.472
316.355
316.912
317.048
317.107
317.098
317.022
316.882
316.988
317.03
317.003
316.897
316.817
316.939
316.996
316.983
316.896
316.799
316.892
316.925
316.89
316.78
316.715
316.801
316.827
316.787
316.675
316.733
316.839
316.885
316.86
316.757
316.55
316.622
316.636
316.587
316.471
316.378
316.442
316.45
316.396
316.277
316.561
316.638
316.656
316.61
316.495
316.811
316.726
316.805
316.71
317
316.901
317.004
316.916
316.797
316.786
316.706
316.725
316.997
316.991
316.906
316.932
316.611
316.413
316.534
316.344
316.61
316.431
316.519
316.344
316.516
316.596
316.56
316.613
316.458
316.377
316.595
316.5
316.638
316.534
316.787
316.688
316.846
316.749
316.409
316.307
316.469
316.353
316.266
316.145
316.231
316.071
316.17
316.018
316.245
316.055
316.167
315.999
316.279
316.023
316.224
315.996
316.121
315.889
315.982
315.746
316.724
316.671
316.68
316.621
316.971
316.952
316.925
316.909
316.444
316.3
316.484
316.352
316.612
316.561
316.523
316.485
316.859
316.852
316.777
316.784
316.374
316.237
316.279
316.156
316.198
315.916
315.967
315.652
316.226
315.924
316.012
315.681
316.129
315.86
315.905
315.6
316.028
315.763
315.821
315.522
316.223
316.137
316.046
315.909
316.239
316.168
316.022
315.89
316.266
316.228
315.977
315.868
316.735
316.99
316.485
316.215
315.87
316.999
316.756
316.507
316.223
315.814
316.975
316.701
316.384
316.039
315.682
315.992
315.923
315.541
315.405
316.06
315.991
315.567
315.431
316.162
316.104
315.598
315.462
316.993
316.953
316.734
316.688
316.464
316.417
316.138
316.079
315.555
315.409
316.973
316.93
316.671
316.577
316.328
316.21
315.931
315.792
315.398
315.223
316.596
316.435
316.551
316.386
316.94
316.917
316.9
316.885
316.164
315.933
316.219
315.999
316.51
316.321
316.436
316.234
316.852
316.827
316.785
316.752
316.123
315.864
316.041
315.766
315.703
315.409
315.12
314.752
315.784
315.498
315.229
314.884
315.64
315.335
315.027
314.648
315.58
315.254
314.974
314.601
315.891
315.827
315.481
315.466
315.957
315.886
315.498
315.488
316.055
315.954
315.514
315.497
316.87
316.725
316.599
316.463
316.34
316.222
316.014
315.903
315.48
315.469
316.845
316.689
316.446
316.302
316.094
315.984
315.739
315.682
315.37
315.383
317.309
317.314
317.221
317.257
317.171
317.175
317.078
317.116
317.406
317.472
317.322
317.391
317.403
317.465
317.312
317.379
317.326
317.404
317.339
317.397
317.451
317.376
317.175
317.077
317.035
316.939
317.218
317.108
317.254
317.154
317.272
317.169
317.51
317.528
317.43
317.453
317.51
317.534
317.425
317.457
317.506
317.542
317.443
317.488
317.348
317.403
317.257
317.329
317.337
317.339
317.295
317.309
317.179
317.179
317.135
317.142
317.401
317.42
317.439
317.445
317.235
317.265
317.162
317.209
317.071
317.091
316.995
317.029
317.343
317.381
317.274
317.332
317.474
317.518
317.48
317.499
317.509
317.54
317.501
317.513
317.419
317.475
317.447
317.473
317.354
317.423
317.403
317.437
317.545
317.532
317.558
317.537
317.539
317.525
317.557
317.533
317.525
317.514
317.552
317.531
317.352
317.197
317.452
317.516
317.539
317.196
317.345
317.443
317.506
317.524
317.198
317.352
317.453
317.506
317.514
317.477
317.38
317.471
317.367
317.478
317.388
317.476
317.376
317.478
317.397
317.483
317.391
317.194
317.155
317.343
317.295
317.432
317.372
317.484
317.415
317.487
317.404
317.206
317.186
317.356
317.33
317.448
317.405
317.49
317.426
317.482
317.398
317.357
317.356
317.321
317.336
317.2
317.213
317.158
317.189
317.416
317.398
317.446
317.416
317.267
317.293
317.211
317.234
317.099
317.141
317.037
317.076
317.37
317.36
317.319
317.305
317.458
317.406
317.444
317.36
317.482
317.419
317.467
317.378
317.422
317.374
317.413
317.328
317.375
317.323
317.376
317.289
317.262
317.15
317.216
317.085
317.277
317.157
317.228
317.089
317.292
317.159
317.245
317.084
317.072
316.926
317.204
317.054
317.277
317.126
317.31
317.155
317.256
317.066
317.116
316.948
317.249
317.073
317.305
317.122
317.303
317.112
317.235
317.02
317.45
317.246
316.914
316.386
317.381
317.178
316.843
316.316
317.455
317.251
316.92
316.388
317.388
317.187
316.855
316.329
317.458
317.256
316.941
316.425
317.416
317.218
316.899
316.383
317.341
317.151
316.827
316.31
317.283
317.104
316.786
316.279
317.437
317.241
316.934
316.427
317.402
317.204
316.927
316.474
317.449
317.248
316.954
316.473
317.41
317.208
316.935
316.498
317.409
317.218
316.904
316.39
317.386
317.194
316.914
316.459
317.371
317.191
316.881
316.379
317.362
317.178
316.901
316.455
317.473
317.269
316.954
316.45
317.443
317.238
316.953
316.504
317.469
317.265
316.954
316.454
317.436
317.231
316.948
316.504
317.458
317.254
316.955
316.469
317.427
317.222
316.943
316.505
317.436
317.233
316.951
316.494
317.414
317.209
316.937
316.513
317.407
317.202
316.936
316.519
317.369
317.166
316.896
316.568
317.273
317.07
316.796
316.489
317.369
317.165
316.897
316.57
317.273
317.069
316.795
316.488
317.367
317.163
316.894
316.566
317.27
317.065
316.791
316.486
317.364
317.159
316.893
316.567
317.267
317.061
316.788
316.483
317.358
317.152
316.89
316.567
317.261
317.053
316.781
316.477
317.326
317.124
316.864
316.545
317.238
317.032
316.764
316.461
317.345
317.139
316.878
316.556
317.254
317.045
316.775
316.472
317.301
317.104
316.847
316.529
317.213
317.012
316.748
316.448
317.273
317.084
316.831
316.515
317.181
316.989
316.731
316.434
315.622
315.018
314.513
314.108
313.8
315.582
314.987
314.484
314.08
313.773
315.621
315.018
314.512
314.107
313.8
315.583
314.987
314.485
314.081
313.774
315.624
315.018
314.513
314.108
313.8
315.602
315.005
314.503
314.099
313.792
315.576
314.984
314.483
314.08
313.774
315.569
314.98
314.482
314.08
313.774
315.62
315.015
314.511
314.107
313.8
315.586
314.97
314.465
314.062
313.756
315.619
315.008
314.503
314.098
313.791
315.582
314.963
314.458
314.055
313.749
315.61
315.009
314.506
314.103
313.796
315.573
314.959
314.457
314.054
313.749
315.604
315.006
314.505
314.103
313.796
315.562
314.951
314.45
314.049
313.743
315.62
315.006
314.499
314.093
313.786
315.578
314.955
314.448
314.043
313.737
315.617
315.003
314.496
314.091
313.784
315.576
314.953
314.446
314.042
313.736
315.611
314.995
314.489
314.084
313.777
315.571
314.948
314.442
314.038
313.732
315.593
314.973
314.467
314.063
313.757
315.558
314.935
314.43
314.027
313.721
315.564
314.944
314.439
314.036
313.73
314.596
314.493
314.581
314.476
314.548
314.44
314.495
314.39
314.409
314.319
314.191
314.073
314.289
314.187
314.105
313.976
314.027
313.895
313.3
312.009
310.989
310.232
309.738
313.328
312.024
310.991
310.228
309.726
313.286
312
310.982
310.227
309.734
313.311
312.011
310.983
310.22
309.721
313.259
311.981
310.969
310.217
309.726
313.285
311.993
310.971
310.211
309.713
313.218
311.952
310.949
310.201
309.713
313.246
311.967
310.953
310.197
309.701
313.158
311.913
310.92
310.179
309.693
313.196
311.934
310.929
310.178
309.685
313.013
311.813
310.847
310.122
309.645
313.039
311.828
310.853
310.12
309.637
313.087
311.866
310.886
310.152
309.671
313.124
311.888
310.896
310.153
309.664
312.943
311.76
310.807
310.09
309.618
312.957
311.768
310.808
310.085
309.608
312.875
311.706
310.765
310.057
309.589
312.881
311.706
310.762
310.049
309.576
316.99
316.857
316.963
317.101
317.307
317.221
317.308
317.21
317.17
317.069
317.171
317.084
315.373
315.4
315.467
315.574
315.718
315.893
315.364
315.389
315.453
315.554
315.686
315.841
315.307
315.209
315.337
315.244
315.412
315.329
315.533
315.468
315.696
315.646
315.885
315.831
316.081
316.261
316.417
316.548
316.648
316.72
316.008
316.171
316.319
316.444
316.542
316.61
315.492
315.539
315.53
315.467
315.347
315.519
315.567
315.558
315.495
315.375
315.587
315.635
315.628
315.564
315.444
315.696
315.745
315.738
315.675
315.555
315.842
315.893
315.887
315.825
315.704
316.019
316.073
316.07
316.008
315.887
315.483
315.53
315.522
315.458
315.339
315.509
315.556
315.549
315.485
315.366
315.574
315.622
315.615
315.551
315.432
315.676
315.725
315.718
315.656
315.536
315.81
315.861
315.856
315.793
315.673
315.968
316.022
316.019
315.958
315.837
315.425
315.472
315.464
315.4
315.281
315.327
315.374
315.365
315.302
315.183
315.456
315.503
315.495
315.431
315.312
315.362
315.409
315.401
315.338
315.219
315.532
315.58
315.572
315.509
315.39
315.448
315.496
315.488
315.425
315.306
315.655
315.704
315.697
315.634
315.514
315.589
315.638
315.631
315.568
315.449
315.819
315.87
315.865
315.802
315.682
315.77
315.821
315.816
315.754
315.634
316.011
316.065
316.062
316
315.88
315.958
316.012
316.009
315.948
315.828
316.211
316.269
316.269
316.209
316.089
316.396
316.459
316.464
316.408
316.288
316.56
316.629
316.641
316.589
316.472
316.7
316.779
316.799
316.754
316.638
316.811
316.899
316.926
316.886
316.774
316.89
316.983
317.014
316.977
316.865
316.138
316.195
316.195
316.136
316.016
316.306
316.367
316.372
316.315
316.196
316.459
316.526
316.535
316.482
316.364
316.591
316.664
316.679
316.63
316.513
316.694
316.773
316.792
316.747
316.631
316.766
316.847
316.869
316.825
316.71
315.386
315.44
315.535
315.669
315.841
316.044
315.377
315.43
315.521
315.647
315.805
315.985
315.321
315.224
315.379
315.288
315.483
315.403
315.633
315.573
315.825
315.782
316.047
316.005
316.259
316.457
316.616
316.725
316.771
316.765
316.171
316.344
316.486
316.587
316.639
316.644
315.505
315.552
315.544
315.48
315.36
315.56
315.607
315.599
315.535
315.415
315.655
315.703
315.695
315.631
315.51
315.791
315.84
315.832
315.768
315.647
315.965
316.015
316.009
315.945
315.823
316.171
316.223
316.218
316.155
316.032
315.496
315.543
315.535
315.471
315.352
315.549
315.597
315.589
315.525
315.405
315.641
315.689
315.681
315.617
315.497
315.769
315.818
315.811
315.747
315.626
315.929
315.98
315.973
315.91
315.788
316.111
316.164
316.159
316.096
315.974
315.439
315.486
315.478
315.414
315.295
315.342
315.388
315.38
315.316
315.198
315.498
315.545
315.537
315.473
315.354
315.407
315.453
315.445
315.381
315.262
315.603
315.651
315.643
315.579
315.458
315.522
315.57
315.562
315.498
315.378
315.755
315.803
315.796
315.731
315.611
315.694
315.742
315.735
315.671
315.551
315.948
315.998
315.992
315.928
315.806
315.905
315.955
315.949
315.885
315.764
316.173
316.225
316.22
316.156
316.034
316.131
316.183
316.178
316.114
315.992
316.389
316.444
316.442
316.38
316.257
316.591
316.651
316.652
316.592
316.469
316.756
316.822
316.829
316.773
316.651
316.874
316.948
316.962
316.912
316.793
316.931
317.015
317.038
316.994
316.879
316.933
317.025
317.054
317.015
316.903
316.301
316.356
316.354
316.292
316.17
316.477
316.537
316.538
316.478
316.356
316.625
316.689
316.695
316.639
316.518
316.732
316.802
316.813
316.761
316.642
316.79
316.866
316.883
316.835
316.718
316.799
316.88
316.901
316.856
316.74
316.809
316.816
316.481
316.26
316.254
316.199
316.399
316.944
316.884
316.898
316.735
316.724
316.766
316.612
316.59
316.502
316.951
316.913
316.745
316.725
316.825
316.793
316.666
316.638
316.447
316.44
316.613
316.609
316.882
316.861
316.941
316.864
316.836
316.914
316.683
316.505
316.726
317.069
317.195
317.243
317.226
317.14
317.012
317.121
317.163
317.136
317.03
316.615
316.674
316.674
316.613
316.49
316.39
316.444
316.441
316.378
316.255
316.384
316.44
316.437
316.375
316.253
316.328
316.382
316.378
316.315
316.193
316.531
316.588
316.587
316.526
316.402
317.174
317.287
317.329
317.305
317.218
317.107
317.215
317.251
317.222
317.128
317.071
317.163
317.194
317.155
317.042
316.935
317.031
317.059
317.022
316.915
316.872
316.944
316.957
316.905
316.786
316.925
317.007
317.028
316.982
316.866
316.753
316.82
316.828
316.773
316.653
316.734
316.803
316.814
316.761
316.641
316.641
316.706
316.712
316.656
316.535
317.178
317.289
317.329
317.304
317.215
317.078
317.165
317.191
317.148
317.034
316.891
316.961
316.972
316.919
316.798
316.868
316.935
316.943
316.888
316.767
316.976
317.051
317.065
317.015
316.896
316.939
317.011
317.023
316.97
316.85
316.806
316.871
316.877
316.821
316.699
316.776
316.839
316.843
316.785
316.662
316.582
316.642
316.644
316.585
316.463
316.574
316.633
316.633
316.572
316.449
316.752
316.817
316.822
316.765
316.644
316.747
316.809
316.813
316.755
316.633
317.126
317.244
317.288
317.267
317.179
317.042
317.14
317.175
317.14
317.03
317.138
317.239
317.277
317.247
317.147
317.025
317.109
317.132
317.089
316.973
316.988
317.065
317.081
317.031
316.913
317.081
317.169
317.196
317.156
317.042
316.824
316.889
316.895
316.838
316.716
316.64
316.699
316.7
316.64
316.517
316.868
316.936
316.944
316.888
316.767
316.661
316.779
316.829
316.814
316.74
316.592
316.84
316.831
317.032
317.037
316.82
316.802
317.025
317.013
316.631
316.413
316.629
316.434
316.609
316.619
316.469
316.847
316.836
317.041
317.047
316.825
316.806
317.032
317.016
316.622
316.392
316.62
316.418
316.6
316.615
316.456
316.846
316.834
317.044
317.052
316.821
316.801
317.032
317.015
316.613
316.335
316.611
316.368
316.59
316.605
316.413
316.805
316.793
317.006
317.015
316.778
316.754
316.993
316.973
316.557
316.263
316.557
316.298
316.538
316.555
316.351
316.729
316.718
316.93
316.938
316.702
316.674
316.916
316.896
316.48
316.205
316.481
316.232
316.465
316.477
316.284
316.593
316.582
316.789
316.797
316.569
316.545
316.776
316.757
316.359
316.106
316.362
316.132
316.348
316.361
316.184
317.341
317.341
317.204
317.205
317.337
317.332
317.199
317.192
317.438
317.51
317.433
317.498
317.43
317.416
317.475
317.352
317.35
317.214
317.217
317.343
317.335
317.206
317.197
317.453
317.511
317.444
317.496
317.436
317.417
317.472
317.357
317.353
317.217
317.223
317.341
317.33
317.207
317.194
317.446
317.481
317.436
317.468
317.421
317.402
317.445
317.319
317.313
317.18
317.187
317.299
317.283
317.168
317.154
317.399
317.411
317.386
317.399
317.367
317.344
317.377
317.238
317.231
317.101
317.108
317.214
317.193
317.089
317.073
317.308
317.309
317.295
317.299
317.273
317.247
317.281
317.09
317.083
316.957
316.964
317.066
317.047
316.944
316.928
317.159
317.174
317.146
317.163
317.127
317.105
317.145
315.622
315.658
315.728
315.787
315.877
315.938
316.081
316.13
316.035
316.093
315.875
315.933
315.757
315.812
315.661
315.7
315.928
316.006
316.031
316.139
316.176
316.275
316.271
316.398
315.497
315.288
315.535
315.34
315.597
315.396
315.66
315.47
315.817
315.7
315.925
315.777
315.525
315.648
316.158
316.347
316.264
316.405
316.385
316.545
316.51
316.632
315.944
316.14
316.058
316.206
315.773
315.962
315.047
314.902
315.146
314.994
315.156
314.973
315.275
315.106
315.31
315.063
315.495
315.265
315.641
315.412
315.809
315.576
315.991
316.026
316.154
316.173
316.319
316.362
316.451
316.494
315.867
315.829
315.677
315.675
316.293
316.295
316.419
316.396
316.57
316.606
316.683
316.701
316.023
315.958
316.163
316.063
315.584
315.308
315.488
315.18
315.382
315.101
315.328
315.01
315.753
315.483
315.621
315.318
315.904
315.636
315.726
315.427
314.703
314.389
314.652
314.342
314.804
314.51
314.709
314.412
314.968
314.74
314.801
314.556
315.762
316.147
315.412
315.149
314.863
316.088
315.681
315.262
314.982
314.676
316.196
315.834
315.483
315.152
314.827
314.098
313.949
313.949
313.818
314.249
314.078
314.05
313.909
314.504
314.313
314.222
314.053
315.99
315.829
315.546
315.331
315.136
314.916
314.812
314.594
314.386
314.172
316.123
315.992
315.717
315.495
315.338
315.087
314.962
314.694
314.49
314.212
315.918
315.672
316.097
315.878
316.317
316.236
316.479
316.428
315.693
315.408
315.519
315.216
316.25
316.03
316.35
316.14
316.61
316.561
316.705
316.666
315.852
315.562
315.952
315.669
315.235
314.896
314.671
314.266
315.093
314.736
314.575
314.176
315.365
315.037
314.763
314.365
315.487
315.156
314.89
314.513
313.892
313.818
313.694
313.868
313.829
313.714
313.99
313.9
313.767
313.942
313.895
313.771
314.183
314.067
313.919
314.051
313.986
313.846
315.631
315.407
315.171
315.1
314.903
314.695
314.701
314.529
314.346
314.417
314.27
314.094
314.139
314.051
313.888
315.806
315.554
315.286
315.197
314.935
314.672
314.785
314.551
314.314
314.453
314.271
314.061
314.146
314.035
313.846
316.615
316.696
316.688
316.793
316.417
316.516
316.5
316.624
316.64
316.797
316.66
316.805
316.693
316.833
316.729
316.859
316.846
316.775
316.892
316.809
316.867
316.925
316.876
316.973
316.724
316.831
316.895
316.988
316.96
317.049
316.961
317.052
316.957
317.098
316.929
317.06
316.983
317.127
316.978
317.109
317.007
317.163
317.049
317.189
317.081
317.202
317.159
317.255
316.799
316.868
316.896
316.972
316.591
316.651
316.702
316.767
317.03
317.121
316.945
317.029
316.989
317.062
317.081
317.141
316.807
316.866
316.909
316.954
317.112
317.2
317.197
317.271
317.141
317.26
317.217
317.284
317.072
317.202
317.137
317.217
317.209
317.312
317.287
317.343
317.284
317.368
317.349
317.393
316.945
316.869
317.081
317.004
316.95
316.87
317.093
317.012
316.958
316.885
317.112
317.039
316.724
316.476
316.879
317.003
317.134
316.421
316.665
316.808
316.93
317.07
316.526
316.768
316.942
317.058
317.151
316.741
316.567
316.875
316.706
316.754
316.588
316.896
316.734
316.783
316.625
316.938
316.786
316.347
316.211
316.607
316.468
316.754
316.612
316.868
316.724
317.001
316.858
316.479
316.396
316.727
316.642
316.895
316.797
317.003
316.884
317.084
316.939
316.878
316.841
316.984
316.974
316.653
316.623
316.778
316.783
317.115
317.071
317.023
316.956
317.066
317.077
317.144
317.163
316.877
316.901
316.964
316.998
317.189
317.163
317.259
317.24
317.193
317.112
317.224
317.104
317.11
317.009
317.159
317.024
317.261
317.198
317.281
317.175
317.32
317.263
317.332
317.239
316.332
316.1
315.881
316.417
316.154
315.935
316.367
316.131
315.908
316.457
316.192
315.963
316.417
316.185
315.958
316.521
316.243
315.998
316.029
315.805
315.566
316.282
316.049
315.803
316.422
316.179
315.929
316.523
316.28
316.036
316.59
316.297
316.03
316.247
316.002
315.729
316.487
316.237
315.961
316.62
316.355
316.071
316.678
316.399
316.112
316.658
316.35
316.056
317.152
317.044
316.776
316.293
317.107
316.992
316.715
316.228
317.172
317.061
316.792
316.303
317.145
317.022
316.743
316.254
317.199
317.08
316.822
316.347
317.21
317.078
316.803
316.318
317.203
317.057
316.762
316.266
317.233
317.07
316.763
316.263
317.26
317.119
316.849
316.368
317.251
317.101
316.853
316.419
317.216
317.09
316.845
316.399
317.203
317.067
316.837
316.428
317.295
317.141
316.85
316.351
317.293
317.13
316.867
316.423
317.332
317.164
316.862
316.365
317.33
317.156
316.885
316.442
317.144
317.048
316.803
316.347
317.081
316.999
316.79
316.391
317.15
317.051
316.809
316.357
317.084
316.998
316.79
316.395
317.158
317.053
316.819
316.379
317.097
317.003
316.794
316.404
317.161
317.047
316.825
316.41
317.11
317.006
316.8
316.42
317.155
317.033
316.82
316.439
316.984
316.915
316.726
316.439
316.875
316.814
316.621
316.352
316.996
316.921
316.731
316.445
316.887
316.819
316.624
316.354
317.018
316.932
316.738
316.45
316.91
316.83
316.63
316.359
317.051
316.95
316.751
316.461
316.94
316.846
316.639
316.366
317.092
316.974
316.767
316.474
316.976
316.864
316.649
316.372
317.172
317.019
316.789
316.485
317.066
316.916
316.682
316.395
317.133
316.996
316.778
316.478
317.021
316.89
316.666
316.384
317.208
317.041
316.8
316.49
317.108
316.941
316.698
316.407
317.242
317.063
316.815
316.502
317.147
316.966
316.714
316.42
315.567
314.985
314.492
314.094
313.789
315.529
314.954
314.463
314.066
313.762
315.572
314.987
314.494
314.095
313.79
315.537
314.96
314.468
314.07
313.765
315.58
314.991
314.496
314.097
313.792
315.564
314.982
314.488
314.089
313.785
315.55
314.968
314.473
314.074
313.769
315.559
314.974
314.478
314.078
313.772
315.586
314.994
314.498
314.098
313.793
315.556
314.952
314.454
314.055
313.75
315.579
314.984
314.488
314.088
313.783
315.546
314.941
314.445
314.046
313.742
315.587
314.995
314.497
314.097
313.792
315.553
314.947
314.449
314.049
313.745
315.596
315.001
314.502
314.101
313.795
315.555
314.947
314.447
314.047
313.742
315.563
314.972
314.478
314.08
313.775
315.52
314.92
314.427
314.03
313.726
315.564
314.97
314.476
314.077
313.773
315.52
314.92
314.426
314.028
313.725
315.563
314.966
314.471
314.072
313.768
315.52
314.917
314.423
314.025
313.722
315.551
314.948
314.452
314.053
313.749
315.513
314.909
314.413
314.016
313.712
315.525
314.92
314.424
314.026
313.722
313.309
313.221
313.353
313.263
313.43
313.329
313.528
313.41
313.628
313.489
313.789
313.63
313.708
313.552
313.868
313.716
313.949
313.811
312.372
311.355
310.509
309.858
309.416
312.386
311.363
310.508
309.852
309.404
312.392
311.366
310.516
309.862
309.421
312.404
311.371
310.514
309.854
309.407
312.43
311.387
310.53
309.872
309.429
312.441
311.391
310.527
309.863
309.415
312.482
311.418
310.55
309.887
309.441
312.488
311.419
310.545
309.877
309.426
312.543
311.457
310.576
309.907
309.458
312.54
311.452
310.568
309.894
309.44
312.675
311.552
310.646
309.961
309.505
312.661