/*--------------------------------*- C++ -*----------------------------------*\
  =========                 |
  \\      /  F ield         | OpenFOAM: The Open Source CFD Toolbox
   \\    /   O peration     | Website:  https://openfoam.org
    \\  /    A nd           | Version:  13
     \\/     M anipulation  |
\*---------------------------------------------------------------------------*/
FoamFile
{
    format      ascii;
    class       volScalarField;
    location    "89.831886";
    object      T;
}
// * * * * * * * * * * * * * * * * * * * * * * * * * * * * * * * * * * * * * //

dimensions      [0 0 0 1 0 0 0];

internalField   nonuniform List<scalar> 
5712
(
914.947
914.65
914.153
913.697
912.966
912.504
911.328
910.953
911.665
911.225
912.952
912.507
913.893
913.473
914.604
914.285
912.591
911.99
911.802
910.975
910.6
909.831
909.875
908.901
915.981
917.688
915.663
917.26
915.229
916.863
914.735
916.28
913.523
914.432
912.682
913.831
915.848
914.88
910.827
909.387
910.023
908.953
909.014
907.801
908.062
907.145
912.542
911.041
911.666
910.534
913.915
912.46
919.647
920.825
918.837
920.062
918.813
920.291
917.86
919.22
917.598
919.594
916.125
917.978
914.988
916.82
913.692
915.553
912.129
911.86
910.876
910.744
909.487
909.147
908.492
908.152
913.182
913.522
914.658
914.713
909.819
909.82
908.865
909.055
907.596
907.318
906.757
906.608
911.978
912.539
910.913
911.745
915.453
917.686
916.295
918.806
917.047
919.336
917.542
920.153
914.142
916.311
915.273
917.733
912.985
915.12
914.469
916.891
922.434
925.001
922.86
925.406
921.657
924.046
922.435
924.864
920.346
922.181
921.713
923.712
913.907
910.779
916.755
918.902
921.249
911.228
914.536
917.934
920.228
922.763
910.402
913.345
916.206
918.925
921.608
927.377
928.547
928.674
929.711
926.172
927.517
927.859
928.979
924.076
925.585
926.462
927.797
911.959
913.172
915.578
917.232
918.922
920.64
921.593
923.295
925.154
926.861
910.94
911.918
914.241
915.957
917.348
919.308
920.454
922.575
924.393
926.633
912.699
914.628
911.32
913.03
909.461
910.019
908.23
908.546
914.614
916.892
915.963
918.383
910.153
911.869
909.403
911.042
907.243
907.544
906.536
906.764
913.39
915.711
912.631
914.899
918.38
921.147
923.069
926.43
919.469
922.373
923.796
927.096
917.38
920.058
922.374
925.681
916.437
919.142
921.381
924.511
928.92
929.457
930.457
929.146
929.379
930.294
928.145
928.805
929.865
928.56
928.844
929.829
926.55
927.414
928.596
927.672
928.095
929.2
914.666
916.382
918.224
919.003
920.512
922.15
922.283
923.592
925.044
924.636
925.74
927.132
926.974
927.558
928.851
913.299
915.221
917.305
918.258
920.276
922.349
921.648
923.438
925.305
924.396
925.751
927.409
926.955
927.71
929.202
907.071
906.451
906.53
905.735
908.662
907.896
908.038
907.093
906.776
905.53
906.626
905.467
906.407
905.297
906.144
905.105
905.273
905.791
904.935
905.544
905.058
904.633
905.125
904.417
906.351
905.56
904.923
904.247
904.439
903.799
904.383
903.724
904.272
903.168
904.484
903.451
904.106
902.971
904.161
903.117
903.945
902.711
903.657
902.537
903.44
902.461
902.88
902.08
905.635
905.096
904.935
904.333
907.301
906.832
906.479
905.971
903.862
903.148
904.473
903.816
904.255
903.677
903.58
903.101
905.704
905.234
904.957
904.59
903.265
902.57
902.65
902.06
902.964
902.006
902.375
901.816
903.455
902.422
902.957
902.302
902.48
901.638
901.868
901.398
901.946
901.245
901.424
901.038
904.322
904.867
903.283
903.848
904.301
904.876
903.203
903.79
904.265
904.784
903.073
903.6
906.151
908.13
904.918
903.944
902.913
908.541
906.581
905.431
904.474
903.377
907.748
905.82
904.445
903.524
902.786
905.808
907.107
904.801
906.061
905.729
906.969
904.645
905.854
905.528
906.699
904.345
905.472
909.073
910.078
906.996
908.015
905.817
906.861
904.913
905.976
903.881
904.942
908.074
908.665
906.099
906.692
904.764
905.468
903.912
904.774
903.27
904.337
904.974
905.182
904.193
904.186
906.769
906.919
905.831
905.704
903.147
903.412
903.818
904.262
903.597
903.425
903.029
902.802
905.106
904.821
904.465
904.114
902.612
902.731
902.105
902.175
902.512
903.064
902.238
903.102
903.123
903.831
902.714
903.695
902.016
902.434
901.83
902.585
901.599
901.966
901.466
902.125
908.878
910.643
912.318
908.235
910.228
911.908
908.63
910.418
912.131
907.939
909.945
911.698
908.259
910.013
911.753
907.459
909.559
911.429
911.439
913.143
914.996
909.404
911.167
913.056
908.272
910.11
912.03
907.47
909.302
911.16
906.936
909.145
911.182
909.747
911.592
913.691
907.827
909.705
911.809
906.765
908.752
910.916
906.296
908.386
910.568
906.424
908.738
910.977
902.727
903.502
905.506
909.185
903.061
903.891
905.963
909.676
902.584
903.389
905.401
909.116
902.8
903.684
905.776
909.501
902.394
903.246
905.175
908.78
902.318
903.27
905.328
909.011
902.385
903.442
905.645
909.418
902.181
903.359
905.651
909.45
901.954
902.968
904.98
908.629
902.018
903.105
904.95
908.235
902.265
903.178
904.999
908.385
902.366
903.348
905.063
908.157
901.704
902.818
904.986
908.77
901.716
902.896
904.849
908.212
901.448
902.66
904.905
908.669
901.454
902.715
904.725
908.074
902.783
903.475
905.3
908.763
903.247
903.836
905.396
908.424
902.743
903.457
905.257
908.7
903.227
903.843
905.395
908.395
902.685
903.444
905.188
908.531
903.129
903.809
905.365
908.33
902.668
903.488
905.147
908.294
903.037
903.787
905.325
908.208
902.714
903.599
905.185
908.069
903.966
904.465
905.872
908.041
904.777
905.218
906.66
908.701
903.876
904.416
905.835
907.999
904.683
905.173
906.633
908.682
903.713
904.331
905.784
907.964
904.519
905.095
906.593
908.646
903.477
904.203
905.688
907.88
904.296
904.982
906.526
908.596
903.173
904.034
905.574
907.788
904.037
904.853
906.454
908.548
902.596
903.71
905.419
907.717
903.375
904.474
906.219
908.389
902.879
903.874
905.501
907.758
903.704
904.665
906.337
908.466
902.343
903.559
905.344
907.683
903.073
904.296
906.111
908.305
902.101
903.404
905.24
907.598
902.798
904.123
905.998
908.215
914.803
919.35
923.246
926.44
928.929
915.092
919.59
923.475
926.667
929.154
914.771
919.334
923.235
926.432
928.922
915.042
919.557
923.45
926.645
929.134
914.708
919.306
923.217
926.418
928.909
914.835
919.378
923.281
926.481
928.973
914.952
919.5
923.409
926.613
929.106
914.887
919.453
923.373
926.583
929.08
914.669
919.285
923.204
926.408
928.902
914.908
919.629
923.564
926.77
929.263
914.721
919.368
923.288
926.491
928.983
914.981
919.707
923.639
926.842
929.333
914.667
919.287
923.212
926.42
928.915
914.939
919.67
923.61
926.819
929.313
914.599
919.24
923.177
926.392
928.891
914.924
919.676
923.626
926.841
929.337
914.837
919.46
923.366
926.561
929.049
915.182
919.875
923.786
926.978
929.464
914.831
919.469
923.379
926.576
929.065
915.174
919.876
923.79
926.984
929.47
914.838
919.505
923.424
926.623
929.112
915.179
919.897
923.816
927.012
929.499
914.942
919.656
923.583
926.783
929.273
915.238
919.97
923.894
927.092
929.579
915.148
919.878
923.807
927.007
929.497
934.185
934.937
933.852
934.619
933.244
934.095
932.473
933.469
931.709
932.859
930.509
931.838
931.122
932.422
929.903
931.186
929.274
930.441
942.427
951.54
959.29
965.411
969.688
942.3
951.477
959.315
965.476
969.824
942.277
951.46
959.24
965.374
969.655
942.165
951.42
959.266
965.464
969.801
941.974
951.291
959.129
965.291
969.584
941.873
951.257
959.159
965.384
969.733
941.566
951.048
958.965
965.168
969.479
941.5
951.035
959.011
965.273
969.638
941.092
950.74
958.752
965.007
969.341
941.098
950.774
958.829
965.134
969.518
940.07
949.983
958.183
964.554
968.937
940.178
950.097
958.322
964.725
969.144
940.582
950.372
958.481
964.796
969.156
940.663
950.464
958.604
964.957
969.358
939.557
949.584
957.871
964.297
968.705
939.63
949.67
957.985
964.445
968.888
939.032
949.17
957.543
964.028
968.463
939.03
949.213
957.615
964.139
968.622
905.242
906.368
907.36
906.071
907.795
907.615
907.554
907.311
907.923
907.591
909.438
909.05
910.247
909.807
909.11
908.741
908.669
908.413
908.588
908.39
906.115
905.829
909.243
910.616
911.064
911.188
909.927
909.28
910.864
909.016
912.243
914.326
909.391
909.971
911.58
909.828
910.539
910.675
907.97
907.864
908.741
908.436
908.03
907.701
908.084
908.591
910.381
910.04
909.381
909.046
906.655
906.231
906.971
906.63
907.145
907.261
908.2
909.392
908.175
904.049
903
902.564
902.634
903.226
904.295
903.422
903.047
903.208
903.969
908.2
907.718
907.674
908.098
909.008
909.609
909.167
909.164
909.618
910.543
910.043
909.583
909.56
909.997
910.912
910.183
909.742
909.739
910.192
911.116
908.895
908.424
908.392
908.822
909.737
907.016
905.657
904.95
904.82
905.249
908.452
906.983
906.233
906.098
906.595
907.405
906.38
905.844
905.89
906.592
910.009
908.596
907.903
907.834
908.445
912.14
910.689
909.984
909.909
910.523
908.113
907.375
907.088
907.323
908.133
908.484
907.555
907.101
907.214
907.958
910.138
909.241
908.815
908.948
909.702
908.636
907.984
907.774
908.067
908.907
909.272
908.544
908.264
908.504
909.316
909.505
908.874
908.683
908.989
909.835
905.901
904.745
904.169
904.128
904.641
906.442
905.581
905.184
905.33
906.088
907.528
906.856
906.629
906.909
907.742
907.276
906.664
906.493
906.816
907.673
906.781
906.076
905.819
906.075
906.896
906.52
905.887
905.697
906.006
906.856
906.982
906.435
906.329
906.703
907.588
907.496
906.954
906.851
907.228
908.114
909.296
908.761
908.662
909.04
909.925
908.985
908.486
908.424
908.831
909.732
908.243
907.651
907.498
907.834
908.698
907.943
907.39
907.277
907.644
908.525
904.65
903.573
903.096
903.135
903.693
904.791
903.964
903.617
903.801
904.578
905.309
904.35
903.888
903.959
904.601
905.346
904.623
904.355
904.602
905.418
905.93
905.265
905.047
905.333
906.172
905.869
905.043
904.672
904.837
905.604
907.088
906.529
906.41
906.774
907.655
908.333
907.831
907.767
908.173
909.075
907.032
906.438
906.285
906.622
907.488
905.944
906.577
905.993
906.693
904.443
905.174
904.417
905.066
906.046
906.126
906.717
906.575
904.46
904.497
905.131
904.927
907.533
909.095
908.102
909.602
907.538
908.953
908.205
909.593
908.227
907.639
907.89
907.505
908.737
909.33
907.54
908.237
907.217
907.988
906.005
906.74
905.56
906.277
909.024
909.776
908.56
909.427
910.16
911.072
910.532
911.785
910.972
912.165
910.427
911.917
910.996
912.316
910.166
912.187
910.55
912.344
911.319
913.157
912.372
914.249
906.614
907.015
906.928
907.385
904.636
904.769
904.971
905.087
908.812
909.966
908.531
909.579
907.434
907.834
908.087
908.393
905.462
905.497
906.062
905.998
909.328
910.435
910.042
911.045
910.779
913.015
912.653
915.189
910.593
913.003
912.322
914.995
911.278
913.418
913.11
915.575
912.037
914.15
913.749
916.17
910.636
911.37
912.032
913.191
910.52
911.122
912.236
913.349
910.304
910.628
912.605
913.525
906.538
904.497
908.547
910.71
913.476
904.432
906.373
908.38
910.658
913.958
904.603
906.8
909.34
912.127
915.021
912.568
913.112
916.25
917.335
912.009
912.554
916.028
917.112
911.179
911.631
915.759
916.851
904.476
904.774
906.549
906.905
908.724
909.085
911.356
911.82
916.105
917.274
904.614
904.923
907.034
907.763
909.798
910.725
913.017
914.13
917.382
918.803
907.604
908.863
907.932
909.221
904.847
904.972
905.126
905.178
911.056
912.909
910.648
912.404
908.213
909.691
908.766
910.344
905.459
905.592
905.949
906.134
911.345
913.424
911.961
914.167
914.81
917.215
919.613
922.667
914.186
916.518
918.749
921.603
915.286
917.778
920.346
923.495
915.73
918.389
920.734
923.828
913.322
913.796
916.635
916.708
912.782
913.307
916.495
916.523
911.985
912.744
916.355
916.424
905.384
906.462
907.568
908.587
909.669
910.553
912.296
913.131
916.613
916.626
905.535
906.698
908.762
909.836
911.61
912.421
914.494
914.868
917.485
917.283
901.971
901.924
902.621
902.341
903.074
903.029
903.758
903.465
901.205
900.659
901.822
901.254
901.222
900.714
901.89
901.342
901.775
901.209
901.686
901.266
900.827
901.365
902.942
903.658
904.06
904.761
902.563
903.376
902.306
903.03
902.129
902.873
900.336
900.139
900.915
900.686
900.34
900.091
900.947
900.645
900.376
900.031
900.83
900.417
901.517
901.028
902.175
901.558
901.729
901.687
902.029
901.896
902.983
902.962
903.304
903.228
901.183
901.003
900.911
900.837
902.469
902.211
902.993
902.608
903.768
903.593
904.326
904.039
901.599
901.273
902.095
901.624
900.585
900.188
900.501
900.302
900.341
900.032
900.367
900.213
900.978
900.485
900.731
900.477
901.441
900.852
901.04
900.727
900.085
900.185
899.927
900.093
900.133
900.242
899.934
900.115
900.241
900.333
899.969
900.132
901.617
902.85
900.818
900.293
900.055
902.862
901.681
900.897
900.377
900.17
902.827
901.603
900.788
900.342
900.221
900.6
901.323
900.588
901.365
900.595
901.271
900.55
901.295
900.602
901.203
900.493
901.176
902.872
903.161
901.692
902.048
900.979
901.422
900.539
901.055
900.447
901.068
902.759
902.881
901.558
901.73
900.815
901.118
900.457
900.918
900.46
901.08
901.518
901.479
901.761
901.592
902.775
902.625
903.068
902.76
900.994
901.077
900.797
900.983
902.151
901.883
902.548
902.297
903.49
903.088
903.931
903.549
901.321
901.337
901.675
901.717
900.631
900.983
900.687
901.295
900.482
900.918
900.544
901.192
900.876
901.192
900.895
901.509
901.205
901.543
901.156
901.779
902.207
903.037
902.497
903.475
902.095
902.985
902.408
903.443
901.991
902.974
902.27
903.47
903.767
904.85
902.716
903.823
902.128
903.242
901.832
902.979
902.168
903.581
903.377
904.623
902.312
903.614
901.846
903.208
901.82
903.24
902.299
903.898
900.642
902.105
904.558
908.546
901.146
902.605
905.085
909.081
900.608
902.063
904.508
908.525
901.09
902.533
904.991
908.973
900.58
902.026
904.35
908.239
900.88
902.3
904.659
908.559
901.419
902.789
905.194
909.111
901.83
903.121
905.487
909.336
900.71
902.125
904.392
908.22
900.958
902.384
904.436
907.854
900.636
902.079
904.242
907.873
900.911
902.364
904.38
907.677
900.911
902.279
904.606
908.497
901.066
902.452
904.526
907.96
901.175
902.474
904.773
908.573
901.234
902.564
904.614
907.986
900.479
901.94
904.259
908.057
900.71
902.165
904.263
907.639
900.509
901.967
904.251
908.027
900.759
902.215
904.294
907.639
900.585
902.041
904.241
907.906
900.82
902.279
904.333
907.628
900.736
902.193
904.269
907.712
900.906
902.37
904.37
907.567
900.949
902.414
904.374
907.512
901.253
902.704
904.683
907.141
901.965
903.417
905.433
907.735
901.25
902.705
904.678
907.126
901.964
903.422
905.438
907.741
901.259
902.721
904.698
907.149
901.975
903.445
905.463
907.756
901.271
902.745
904.701
907.145
901.988
903.472
905.487
907.775
901.303
902.787
904.715
907.139
902.021
903.523
905.532
907.813
901.517
902.981
904.898
907.297
902.165
903.663
905.646
907.927
901.39
902.873
904.801
907.215
902.065
903.574
905.573
907.852
901.686
903.114
905.021
907.414
902.337
903.799
905.759
908.018
901.881
903.254
905.131
907.506
902.555
903.959
905.881
908.119
914.423
919.117
923.099
926.341
928.852
914.729
919.365
923.334
926.572
929.08
914.424
919.121
923.102
926.342
928.852
914.724
919.361
923.327
926.562
929.069
914.402
919.119
923.1
926.339
928.848
914.571
919.215
923.179
926.413
928.919
914.768
919.387
923.338
926.565
929.068
914.817
919.409
923.346
926.565
929.065
914.432
919.14
923.113
926.348
928.854
914.698
919.502
923.484
926.717
929.221
914.441
919.198
923.182
926.419
928.927
914.73
919.556
923.544
926.779
929.283
914.503
919.186
923.149
926.378
928.882
914.795
919.583
923.556
926.783
929.285
914.542
919.205
923.155
926.378
928.879
914.874
919.646
923.607
926.828
929.327
914.439
919.219
923.215
926.459
928.97
914.77
919.628
923.632
926.875
929.383
914.456
919.242
923.238
926.48
928.99
914.781
919.641
923.644
926.886
929.393
914.502
919.302
923.297
926.537
929.046
914.82
919.683
923.683
926.923
929.429
914.641
919.475
923.47
926.708
929.214
914.922
919.781
923.776
927.013
929.517
914.87
919.711
923.703
926.938
929.442
924.086
924.947
924.203
925.084
924.473
925.377
924.904
925.791
925.599
926.368
927.369
928.371
926.578
927.448
928.05
929.152
928.664
929.781
935.036
946.238
955.323
962.25
966.918
934.794
946.112
955.315
962.295
967.045
935.145
946.315
955.379
962.293
966.954
934.937
946.223
955.376
962.368
967.093
935.367
946.469
955.489
962.378
967.026
935.152
946.37
955.48
962.447
967.161
935.711
946.707
955.66
962.511
967.141
935.47
946.586
955.634
962.567
967.265
936.203
947.039
955.903
962.705
967.311
935.88
946.86
955.834
962.725
967.403
937.38
947.864
956.518
963.193
967.732
937.171
947.741
956.479
963.226
967.822
936.783
947.429
956.191
962.934
967.51
936.472
947.246
956.115
962.944
967.588
937.947
948.301
956.856
963.465
967.967
937.836
948.243
956.859
963.525
968.075
938.499
948.743
957.205
963.75
968.216
938.445
948.744
957.242
963.834
968.352
904.323
905.386
904.609
903.499
902
902.631
901.987
902.704
903.09
903.835
903.09
903.732
915.712
915.51
915.011
914.222
913.159
911.88
915.798
915.605
915.131
914.391
913.42
912.28
916.224
916.993
915.995
916.732
915.436
916.098
914.539
915.065
913.341
913.744
911.949
912.383
910.509
909.212
908.1
907.187
906.508
906.017
911.066
909.889
908.834
907.949
907.267
906.792
914.77
914.398
914.464
914.968
915.913
914.566
914.192
914.255
914.757
915.702
914.063
913.684
913.743
914.243
915.187
913.266
912.88
912.932
913.427
914.37
912.192
911.794
911.835
912.322
913.261
910.896
910.48
910.503
910.976
911.91
914.856
914.483
914.547
915.05
915.994
914.661
914.285
914.347
914.848
915.792
914.181
913.801
913.858
914.356
915.299
913.434
913.046
913.095
913.588
914.529
912.451
912.051
912.089
912.573
913.511
911.295
910.877
910.898
911.369
912.301
915.284
914.913
914.979
915.484
916.428
916.055
915.685
915.751
916.255
917.197
915.053
914.68
914.744
915.247
916.191
915.791
915.419
915.484
915.986
916.928
914.489
914.112
914.172
914.672
915.615
915.153
914.776
914.836
915.335
916.276
913.585
913.2
913.253
913.748
914.69
914.111
913.726
913.778
914.271
915.211
912.375
911.977
912.018
912.504
913.443
912.777
912.378
912.415
912.899
913.836
910.966
910.549
910.571
911.044
911.978
911.397
910.977
910.996
911.465
912.396
909.5
909.057
909.052
909.505
910.43
908.168
907.685
907.642
908.065
908.976
907.006
906.469
906.372
906.754
907.645
906.023
905.414
905.25
905.58
906.444
905.261
904.579
904.353
904.636
905.474
904.715
903.992
903.735
903.994
904.818
910.058
909.615
909.611
910.063
910.988
908.851
908.375
908.337
908.764
909.676
907.757
907.238
907.159
907.555
908.451
906.828
906.261
906.136
906.497
907.376
906.102
905.491
905.329
905.66
906.524
905.602
904.969
904.787
905.104
905.961
915.616
915.22
914.528
913.543
912.281
910.797
915.702
915.318
914.652
913.722
912.566
911.254
916.124
916.887
915.694
916.415
914.932
915.568
913.829
914.314
912.421
912.775
910.793
911.14
909.235
907.811
906.677
905.925
905.623
905.696
909.902
908.655
907.635
906.926
906.571
906.545
914.674
914.303
914.368
914.873
915.819
914.277
913.904
913.969
914.473
915.419
913.581
913.205
913.267
913.77
914.716
912.59
912.208
912.266
912.766
913.713
911.318
910.928
910.978
911.473
912.419
909.821
909.417
909.454
909.94
910.883
914.76
914.388
914.452
914.956
915.901
914.374
914
914.063
914.567
915.512
913.704
913.327
913.387
913.889
914.834
912.768
912.385
912.44
912.938
913.883
911.602
911.21
911.257
911.749
912.693
910.277
909.87
909.904
910.387
911.328
915.184
914.814
914.88
915.385
916.33
915.95
915.58
915.647
916.151
917.094
914.753
914.381
914.447
914.951
915.896
915.476
915.105
915.171
915.675
916.618
913.987
913.612
913.675
914.178
915.124
914.624
914.25
914.313
914.816
915.76
912.877
912.497
912.555
913.056
914.002
913.363
912.983
913.041
913.54
914.485
911.459
911.07
911.12
911.616
912.561
911.814
911.423
911.472
911.966
912.911
909.819
909.416
909.454
909.941
910.885
910.165
909.761
909.798
910.283
911.226
908.239
907.814
907.83
908.302
909.24
906.786
906.329
906.315
906.763
907.69
905.609
905.105
905.046
905.46
906.37
904.79
904.219
904.096
904.461
905.346
904.402
903.752
903.561
903.872
904.727
904.405
903.695
903.451
903.722
904.553
908.906
908.478
908.492
908.961
909.896
907.632
907.176
907.162
907.61
908.535
906.576
906.081
906.03
906.449
907.36
905.824
905.281
905.184
905.568
906.462
905.421
904.83
904.688
905.037
905.912
905.36
904.735
904.561
904.885
905.746
905.556
905.394
907.632
909.233
909.338
909.708
908.241
904.634
905.096
904.848
906.171
906.02
905.793
906.819
907.022
907.632
904.53
904.668
905.827
905.938
905.245
905.439
906.311
906.53
907.979
907.98
906.772
906.763
905.017
905.033
904.517
904.958
905.129
904.642
906.2
907.485
905.912
903.525
902.527
902.127
902.228
902.851
903.88
903.032
902.681
902.862
903.636
906.613
906.163
906.156
906.61
907.541
908.241
907.82
907.841
908.316
909.255
908.34
907.912
907.925
908.393
909.329
908.719
908.302
908.326
908.802
909.742
907.233
906.796
906.8
907.263
908.198
902.846
901.946
901.594
901.741
902.365
903.361
902.5
902.188
902.374
903.054
903.526
902.801
902.546
902.808
903.634
904.615
903.845
903.599
903.847
904.632
904.895
904.335
904.223
904.596
905.486
904.576
903.936
903.755
904.076
904.936
905.739
905.222
905.149
905.552
906.457
905.921
905.381
905.287
905.673
906.568
906.568
906.067
906.008
906.421
907.329
902.772
901.891
901.552
901.71
902.358
903.411
902.735
902.52
902.813
903.658
904.721
904.179
904.083
904.47
905.367
904.854
904.334
904.26
904.663
905.569
904.101
903.523
903.395
903.757
904.64
904.326
903.777
903.675
904.057
904.951
905.246
904.747
904.693
905.111
906.024
905.48
904.997
904.957
905.387
906.306
906.947
906.481
906.457
906.897
907.819
906.962
906.511
906.503
906.956
907.886
905.711
905.215
905.162
905.581
906.494
905.716
905.234
905.196
905.626
906.545
903.116
902.181
901.811
901.94
902.582
903.645
902.879
902.594
902.829
903.639
903.002
902.205
901.894
902.091
902.817
903.732
903.08
902.885
903.194
904.047
903.976
903.389
903.252
903.606
904.485
903.373
902.686
902.457
902.738
903.576
905.134
904.635
904.579
904.997
905.91
906.461
906.005
905.991
906.441
907.369
904.831
904.314
904.243
904.648
905.554
906.45
905.569
905.209
905.338
905.915
907.054
905.738
905.809
904.208
904.178
905.883
906.016
904.256
904.33
907.394
909.13
907.407
908.968
907.567
907.483
908.682
905.694
905.774
904.147
904.106
905.856
905.991
904.209
904.311
907.486
909.321
907.494
909.114
907.646
907.52
908.809
905.718
905.807
904.136
904.083
905.897
906.04
904.215
904.323
907.573
909.797
907.585
909.527
907.739
907.605
909.159
906.041
906.128
904.423
904.365
906.229
906.399
904.508
904.635
908.017
910.37
908.01
910.081
908.145
907.99
909.64
906.613
906.697
905
904.943
906.797
906.999
905.084
905.21
908.602
910.803
908.585
910.574
908.696
908.581
910.145
907.638
907.716
906.055
905.999
907.796
907.964
906.135
906.248
909.517
911.547
909.483
911.331
909.574
909.451
910.898
901.757
901.748
902.844
902.84
901.772
901.794
902.869
902.908
900.975
900.387
901.012
900.477
901.023
901.125
900.655
901.681
901.686
902.777
902.76
901.732
901.779
902.82
902.869
900.866
900.386
900.925
900.498
900.981
901.118
900.688
901.649
901.673
902.754
902.723
901.746
901.817
902.821
902.898
900.922
900.614
900.998
900.715
901.093
901.236
900.891
901.934
901.971
903.036
902.996
902.062
902.162
903.114
903.196
901.281
901.137
901.37
901.23
901.502
901.674
901.397
902.538
902.58
903.625
903.582
902.694
902.833
903.705
903.797
901.952
901.901
902.049
901.975
902.2
902.39
902.114
903.64
903.684
904.704
904.66
903.798
903.918
904.785
904.871
903.065
902.899
903.157
902.98
903.282
903.444
903.124
915.001
914.719
914.165
913.707
912.975
912.512
911.335
910.959
911.672
911.231
912.961
912.516
913.905
913.485
914.67
914.366
912.597
911.994
911.808
910.979
910.604
909.834
909.879
908.904
916.022
917.718
915.719
917.304
915.239
916.87
914.743
916.285
913.528
914.438
912.686
913.835
915.853
914.885
910.831
909.389
910.025
908.955
909.017
907.803
908.065
907.147
912.546
911.044
911.669
910.536
913.919
912.462
919.674
920.851
918.878
920.102
918.818
920.295
917.863
919.223
917.601
919.598
916.128
917.981
914.991
916.823
913.694
915.555
912.132
911.862
910.878
910.745
909.489
909.149
908.494
908.154
913.184
913.524
914.661
914.715
909.821
909.822
908.866
909.057
907.598
907.32
906.758
906.609
911.98
912.54
910.914
911.746
915.455
917.688
916.297
918.808
917.049
919.338
917.544
920.155
914.144
916.313
915.274
917.735
912.986
915.122
914.471
916.892
922.466
925.036
922.883
925.43
921.659
924.048
922.438
924.867
920.349
922.183
921.715
923.714
913.909
910.78
916.757
918.905
921.251
911.229
914.538
917.936
920.23
922.765
910.404
913.347
916.208
918.927
921.609
927.414
928.584
928.696
929.731
926.172
927.516
927.86
928.98
924.077
925.585
926.463
927.798
911.96
913.173
915.579
917.233
918.924
920.641
921.594
923.296
925.155
926.863
910.941
911.919
914.242
915.959
917.35
919.309
920.456
922.577
924.395
926.634
912.701
914.629
911.322
913.032
909.463
910.02
908.231
908.547
914.615
916.894
915.964
918.385
910.155
911.87
909.404
911.043
907.244
907.545
906.537
906.765
913.391
915.712
912.632
914.9
918.382
921.148
923.07
926.432
919.471
922.375
923.797
927.097
917.381
920.06
922.376
925.683
916.438
919.143
921.382
924.513
928.952
929.486
930.484
929.167
929.397
930.311
928.144
928.805
929.866
928.561
928.845
929.831
926.55
927.414
928.597
927.673
928.096
929.201
914.668
916.383
918.225
919.004
920.513
922.151
922.284
923.593
925.045
924.637
925.741
927.133
926.976
927.559
928.853
913.3
915.222
917.306
918.259
920.277
922.351
921.649
923.439
925.307
924.398
925.752
927.41
926.957
927.711
929.203
907.073
906.453
906.531
905.737
908.665
907.898
908.041
907.096
906.797
905.551
906.655
905.497
906.408
905.298
906.143
905.105
905.274
905.792
904.936
905.545
905.059
904.634
905.126
904.418
906.352
905.562
904.924
904.248
904.44
903.8
904.384
903.724
904.289
903.18
904.511
903.472
904.107
902.972
904.161
903.117
903.946
902.712
903.658
902.538
903.44
902.461
902.88
902.08
905.636
905.097
904.936
904.334
907.303
906.833
906.48
905.972
903.863
903.149
904.474
903.817
904.256
903.678
903.581
903.102
905.706
905.235
904.959
904.591
903.266
902.571
902.65
902.061
902.965
902.006
902.376
901.817
903.456
902.422
902.958
902.303
902.48
901.639
901.869
901.399
901.946
901.246
901.425
901.038
904.332
904.873
903.289
903.851
904.301
904.877
903.204
903.791
904.266
904.784
903.074
903.6
906.152
908.132
904.919
903.945
902.913
908.542
906.583
905.432
904.474
903.378
907.749
905.821
904.446
903.525
902.786
905.813
907.114
904.802
906.063
905.73
906.969
904.646
905.855
905.529
906.699
904.346
905.472
909.075
910.079
906.997
908.016
905.818
906.862
904.914
905.977
903.882
904.943
908.076
908.666
906.1
906.693
904.765
905.469
903.913
904.775
903.271
904.338
904.975
905.183
904.194
904.187
906.77
906.92
905.832
905.705
903.148
903.412
903.819
904.263
903.598
903.426
903.03
902.802
905.107
904.822
904.466
904.115
902.613
902.732
902.105
902.176
902.513
903.064
902.239
903.103
903.124
903.832
902.714
903.696
902.016
902.434
901.831
902.586
901.6
901.967
901.466
902.126
908.886
910.653
912.328
908.238
910.233
911.914
908.63
910.417
912.131
907.94
909.946
911.699
908.259
910.013
911.753
907.46
909.56
911.43
911.44
913.143
914.997
909.405
911.168
913.057
908.272
910.111
912.031
907.47
909.303
911.161
906.937
909.146
911.183
909.748
911.593
913.692
907.828
909.706
911.81
906.766
908.753
910.917
906.297
908.387
910.569
906.425
908.739
910.978
902.735
903.508
905.513
909.195
903.077
903.905
905.977
909.69
902.585
903.39
905.401
909.116
902.8
903.684
905.775
909.5
902.395
903.246
905.175
908.78
902.319
903.27
905.328
909.01
902.385
903.442
905.645
909.418
902.181
903.359
905.651
909.449
901.954
902.968
904.98
908.629
902.018
903.106
904.951
908.235
902.265
903.178
904.999
908.385
902.366
903.348
905.063
908.157
901.704
902.818
904.986
908.77
901.717
902.896
904.849
908.212
901.449
902.661
904.905
908.668
901.454
902.715
904.725
908.073
902.786
903.477
905.302
908.769
903.247
903.835
905.395
908.426
902.743
903.458
905.258
908.7
903.227
903.844
905.395
908.395
902.685
903.445
905.188
908.531
903.13
903.81
905.365
908.33
902.669
903.488
905.147
908.294
903.038
903.787
905.325
908.208
902.715
903.6
905.185
908.069
903.964
904.461
905.869
908.04
904.774
905.214
906.655
908.697
903.877
904.417
905.835
907.999
904.683
905.173
906.634
908.682
903.714
904.332
905.784
907.964
904.519
905.096
906.593
908.646
903.478
904.203
905.689
907.88
904.297
904.982
906.526
908.596
903.174
904.035
905.574
907.788
904.037
904.853
906.455
908.548
902.596
903.711
905.419
907.717
903.375
904.475
906.219
908.39
902.88
903.874
905.501
907.759
903.704
904.665
906.338
908.466
902.343
903.56
905.344
907.683
903.073
904.296
906.112
908.305
902.101
903.404
905.24
907.598
902.799
904.123
905.998
908.215
914.806
919.352
923.246
926.44
928.929
915.1
919.597
923.481
926.672
929.16
914.77
919.334
923.235
926.431
928.921
915.04
919.556
923.448
926.643
929.132
914.708
919.306
923.217
926.417
928.908
914.834
919.377
923.28
926.48
928.972
914.951
919.5
923.408
926.612
929.105
914.886
919.452
923.372
926.583
929.079
914.669
919.284
923.203
926.408
928.901
914.908
919.629
923.564
926.769
929.262
914.721
919.367
923.288
926.49
928.982
914.981
919.707
923.638
926.842
929.333
914.667
919.286
923.211
926.42
928.915
914.938
919.669
923.609
926.819
929.312
914.599
919.24
923.177
926.392
928.89
914.924
919.676
923.626
926.84
929.336
914.836
919.457
923.363
926.557
929.046
915.178
919.87
923.781
926.973
929.458
914.831
919.469
923.379
926.576
929.065
915.175
919.877
923.791
926.984
929.47
914.838
919.505
923.423
926.622
929.112
915.179
919.897
923.816
927.012
929.499
914.942
919.656
923.582
926.783
929.272
915.238
919.97
923.894
927.092
929.579
915.147
919.878
923.806
927.007
929.496
934.203
934.951
933.852
934.621
933.245
934.097
932.475
933.47
931.71
932.861
930.51
931.839
931.124
932.423
929.905
931.187
929.275
930.442
942.437
951.546
959.295
965.414
969.691
942.305
951.479
959.316
965.476
969.823
942.277
951.461
959.24
965.374
969.655
942.167
951.421
959.267
965.464
969.802
941.975
951.291
959.129
965.291
969.584
941.875
951.258
959.16
965.385
969.733
941.567
951.048
958.966
965.169
969.479
941.501
951.036
959.011
965.273
969.639
941.093
950.741
958.753
965.008
969.341
941.099
950.775
958.83
965.135
969.519
940.071
949.984
958.184
964.555
968.938
940.179
950.098
958.323
964.726