/*--------------------------------*- C++ -*----------------------------------*\
  =========                 |
  \\      /  F ield         | OpenFOAM: The Open Source CFD Toolbox
   \\    /   O peration     | Website:  https://openfoam.org
    \\  /    A nd           | Version:  13
     \\/     M anipulation  |
\*---------------------------------------------------------------------------*/
FoamFile
{
    format      ascii;
    class       volScalarField;
    location    "209.831886";
    object      T;
}
// * * * * * * * * * * * * * * * * * * * * * * * * * * * * * * * * * * * * * //

dimensions      [0 0 0 1 0 0 0];

internalField   nonuniform List<scalar> 
5712
(
1130.9
1130.79
1130.61
1130.44
1130.16
1129.98
1129.53
1129.39
1129.65
1129.49
1130.14
1129.98
1130.5
1130.34
1130.77
1130.65
1130.02
1129.8
1129.73
1129.42
1129.26
1128.97
1128.99
1128.63
1131.3
1131.95
1131.18
1131.79
1131.02
1131.64
1130.83
1131.42
1130.38
1130.72
1130.07
1130.5
1131.26
1130.9
1129.36
1128.81
1129.06
1128.65
1128.66
1128.2
1128.31
1127.96
1130.01
1129.44
1129.68
1129.25
1130.53
1129.98
1132.69
1133.13
1132.38
1132.84
1132.38
1132.94
1132.02
1132.53
1131.93
1132.68
1131.37
1132.07
1130.94
1131.63
1130.45
1131.15
1129.86
1129.76
1129.39
1129.34
1128.85
1128.72
1128.47
1128.35
1130.27
1130.4
1130.82
1130.85
1128.99
1128.99
1128.62
1128.7
1128.13
1128.03
1127.82
1127.76
1129.81
1130.03
1129.41
1129.72
1131.13
1131.97
1131.45
1132.39
1131.73
1132.59
1131.92
1132.9
1130.63
1131.44
1131.06
1131.99
1130.19
1130.99
1130.76
1131.67
1133.75
1134.71
1133.9
1134.86
1133.46
1134.36
1133.75
1134.66
1132.97
1133.66
1133.48
1134.23
1130.53
1129.34
1131.61
1132.43
1133.31
1129.5
1130.77
1132.06
1132.93
1133.88
1129.2
1130.32
1131.41
1132.44
1133.45
1135.6
1136.04
1136.1
1136.48
1135.15
1135.65
1135.79
1136.21
1134.37
1134.93
1135.27
1135.77
1129.78
1130.23
1131.16
1131.78
1132.43
1133.07
1133.44
1134.08
1134.78
1135.42
1129.4
1129.77
1130.66
1131.3
1131.84
1132.58
1133.02
1133.81
1134.49
1135.33
1130.08
1130.8
1129.56
1130.2
1128.84
1129.05
1128.38
1128.49
1130.81
1131.66
1131.32
1132.23
1129.11
1129.76
1128.83
1129.44
1128
1128.11
1127.73
1127.81
1130.35
1131.22
1130.06
1130.91
1132.24
1133.27
1134
1135.25
1132.65
1133.73
1134.27
1135.5
1131.86
1132.86
1133.73
1134.97
1131.5
1132.51
1133.36
1134.53
1136.17
1136.35
1136.71
1136.26
1136.33
1136.65
1135.88
1136.11
1136.49
1136.04
1136.13
1136.48
1135.28
1135.59
1136.01
1135.71
1135.85
1136.24
1130.79
1131.43
1132.1
1132.43
1132.99
1133.59
1133.68
1134.15
1134.68
1134.57
1134.97
1135.47
1135.45
1135.65
1136.11
1130.28
1131
1131.76
1132.16
1132.91
1133.67
1133.45
1134.1
1134.78
1134.48
1134.97
1135.57
1135.43
1135.7
1136.23
1127.9
1127.67
1127.7
1127.4
1128.52
1128.23
1128.28
1127.93
1127.77
1127.3
1127.72
1127.27
1127.64
1127.21
1127.54
1127.14
1127.22
1127.41
1127.09
1127.32
1127.13
1126.97
1127.17
1126.9
1127.65
1127.35
1127.08
1126.83
1126.9
1126.66
1126.87
1126.62
1126.82
1126.39
1126.9
1126.5
1126.76
1126.32
1126.78
1126.37
1126.7
1126.22
1126.59
1126.15
1126.51
1126.12
1126.3
1125.98
1127.37
1127.16
1127.1
1126.88
1128.01
1127.83
1127.7
1127.51
1126.68
1126.41
1126.91
1126.67
1126.84
1126.63
1126.59
1126.41
1127.41
1127.23
1127.12
1126.98
1126.46
1126.19
1126.22
1126
1126.33
1125.95
1126.11
1125.88
1126.52
1126.11
1126.33
1126.07
1126.15
1125.81
1125.92
1125.72
1125.94
1125.66
1125.75
1125.59
1126.83
1127.03
1126.43
1126.65
1126.83
1127.04
1126.4
1126.63
1126.82
1127.01
1126.36
1126.56
1127.56
1128.32
1127.08
1126.7
1126.3
1128.47
1127.72
1127.27
1126.9
1126.48
1128.18
1127.44
1126.9
1126.55
1126.25
1127.39
1127.88
1127.01
1127.49
1127.36
1127.83
1126.95
1127.41
1127.29
1127.74
1126.84
1127.27
1128.67
1129.05
1127.88
1128.26
1127.42
1127.81
1127.07
1127.47
1126.67
1127.07
1128.3
1128.52
1127.54
1127.77
1127.03
1127.29
1126.69
1127.02
1126.44
1126.85
1127.12
1127.19
1126.82
1126.82
1127.81
1127.86
1127.45
1127.4
1126.42
1126.51
1126.67
1126.84
1126.6
1126.53
1126.38
1126.28
1127.18
1127.06
1126.93
1126.79
1126.21
1126.25
1126.02
1126.04
1126.16
1126.37
1126.05
1126.38
1126.4
1126.66
1126.23
1126.6
1125.97
1126.13
1125.89
1126.18
1125.81
1125.95
1125.75
1126
1128.55
1129.21
1129.83
1128.31
1129.06
1129.68
1128.46
1129.13
1129.77
1128.2
1128.95
1129.61
1128.32
1128.98
1129.63
1128.02
1128.81
1129.51
1129.56
1130.2
1130.88
1128.78
1129.44
1130.14
1128.35
1129.03
1129.75
1128.04
1128.72
1129.42
1127.83
1128.66
1129.42
1128.93
1129.62
1130.4
1128.19
1128.9
1129.68
1127.78
1128.53
1129.34
1127.6
1128.39
1129.2
1127.64
1128.51
1129.35
1126.21
1126.49
1127.24
1128.62
1126.33
1126.64
1127.41
1128.81
1126.16
1126.45
1127.2
1128.6
1126.24
1126.56
1127.34
1128.74
1126.08
1126.39
1127.12
1128.47
1126.05
1126.4
1127.17
1128.56
1126.08
1126.47
1127.29
1128.71
1126
1126.43
1127.29
1128.72
1125.92
1126.29
1127.04
1128.41
1125.94
1126.34
1127.03
1128.26
1126.04
1126.37
1127.05
1128.32
1126.07
1126.43
1127.07
1128.23
1125.82
1126.23
1127.04
1128.46
1125.83
1126.26
1126.99
1128.25
1125.72
1126.17
1127.01
1128.43
1125.73
1126.19
1126.94
1128.2
1126.23
1126.48
1127.16
1128.46
1126.41
1126.62
1127.2
1128.34
1126.22
1126.48
1127.15
1128.44
1126.4
1126.62
1127.2
1128.32
1126.2
1126.47
1127.12
1128.38
1126.36
1126.61
1127.19
1128.3
1126.19
1126.49
1127.1
1128.29
1126.33
1126.6
1127.17
1128.25
1126.21
1126.53
1127.12
1128.2
1126.68
1126.85
1127.38
1128.19
1126.98
1127.14
1127.67
1128.43
1126.65
1126.84
1127.36
1128.17
1126.95
1127.12
1127.66
1128.42
1126.58
1126.8
1127.34
1128.16
1126.89
1127.09
1127.64
1128.41
1126.5
1126.75
1127.31
1128.13
1126.8
1127.05
1127.62
1128.39
1126.38
1126.69
1127.26
1128.09
1126.71
1127
1127.59
1128.37
1126.16
1126.57
1127.2
1128.06
1126.45
1126.85
1127.5
1128.31
1126.27
1126.63
1127.23
1128.08
1126.58
1126.93
1127.55
1128.34
1126.06
1126.51
1127.17
1128.05
1126.34
1126.78
1127.46
1128.28
1125.97
1126.45
1127.13
1128.02
1126.23
1126.72
1127.42
1128.24
1130.73
1132.43
1133.87
1135.05
1135.96
1130.83
1132.51
1133.95
1135.13
1136.04
1130.72
1132.42
1133.87
1135.05
1135.96
1130.82
1132.5
1133.95
1135.12
1136.03
1130.69
1132.41
1133.86
1135.04
1135.95
1130.74
1132.43
1133.88
1135.06
1135.97
1130.78
1132.48
1133.93
1135.11
1136.02
1130.76
1132.46
1133.92
1135.1
1136.01
1130.68
1132.4
1133.86
1135.04
1135.95
1130.76
1132.53
1133.99
1135.17
1136.08
1130.7
1132.43
1133.89
1135.07
1135.98
1130.79
1132.55
1134.01
1135.19
1136.1
1130.68
1132.4
1133.86
1135.04
1135.95
1130.77
1132.54
1134
1135.18
1136.09
1130.65
1132.38
1133.85
1135.03
1135.94
1130.77
1132.54
1134.01
1135.19
1136.1
1130.74
1132.47
1133.92
1135.09
1136
1130.87
1132.62
1134.07
1135.24
1136.15
1130.74
1132.47
1133.92
1135.1
1136.01
1130.86
1132.62
1134.07
1135.25
1136.15
1130.74
1132.48
1133.94
1135.11
1136.02
1130.86
1132.62
1134.08
1135.26
1136.16
1130.78
1132.54
1133.99
1135.17
1136.08
1130.89
1132.65
1134.11
1135.28
1136.19
1130.85
1132.62
1134.07
1135.25
1136.16
1138.15
1138.43
1138.02
1138.31
1137.8
1138.11
1137.51
1137.88
1137.22
1137.65
1136.77
1137.27
1137
1137.49
1136.55
1137.02
1136.31
1136.74
1141.2
1144.53
1147.34
1149.52
1151.01
1141.15
1144.51
1147.34
1149.54
1151.06
1141.14
1144.51
1147.32
1149.51
1151
1141.1
1144.49
1147.33
1149.54
1151.05
1141.03
1144.44
1147.28
1149.48
1150.98
1140.99
1144.43
1147.29
1149.51
1151.02
1140.88
1144.35
1147.22
1149.43
1150.94
1140.85
1144.35
1147.23
1149.47
1150.99
1140.7
1144.24
1147.14
1149.37
1150.89
1140.7
1144.25
1147.16
1149.41
1150.95
1140.32
1143.96
1146.93
1149.2
1150.74
1140.36
1144
1146.98
1149.26
1150.81
1140.51
1144.1
1147.04
1149.29
1150.82
1140.54
1144.13
1147.08
1149.35
1150.89
1140.13
1143.81
1146.81
1149.11
1150.65
1140.15
1143.84
1146.85
1149.16
1150.71
1139.93
1143.65
1146.69
1149.01
1150.56
1139.93
1143.67
1146.71
1149.05
1150.62
1127.21
1127.65
1128.03
1127.53
1128.16
1128.1
1128.08
1127.99
1128.22
1128.1
1128.8
1128.66
1129.11
1128.94
1128.67
1128.53
1128.5
1128.4
1128.46
1128.39
1127.55
1127.43
1128.71
1129.22
1129.39
1129.43
1128.96
1128.76
1129.35
1128.65
1129.87
1130.64
1128.78
1129
1129.6
1128.93
1129.2
1129.25
1128.26
1128.21
1128.53
1128.41
1128.26
1128.14
1128.28
1128.47
1129.13
1129.01
1128.76
1128.64
1127.76
1127.59
1127.88
1127.73
1127.93
1127.98
1128.32
1128.76
1128.31
1126.76
1126.36
1126.18
1126.2
1126.42
1126.85
1126.51
1126.37
1126.42
1126.7
1128.32
1128.14
1128.12
1128.27
1128.61
1128.85
1128.68
1128.68
1128.84
1129.19
1129.01
1128.83
1128.82
1128.98
1129.32
1129.06
1128.89
1128.89
1129.06
1129.4
1128.58
1128.4
1128.39
1128.55
1128.89
1127.9
1127.37
1127.1
1127.04
1127.2
1128.44
1127.88
1127.58
1127.53
1127.71
1128.04
1127.65
1127.44
1127.45
1127.71
1129.02
1128.48
1128.21
1128.18
1128.4
1129.81
1129.26
1128.99
1128.96
1129.18
1128.3
1128.02
1127.9
1127.99
1128.29
1128.44
1128.09
1127.91
1127.95
1128.22
1129.06
1128.72
1128.55
1128.6
1128.87
1128.49
1128.24
1128.16
1128.27
1128.58
1128.73
1128.45
1128.34
1128.43
1128.73
1128.81
1128.57
1128.5
1128.61
1128.92
1127.47
1127.03
1126.8
1126.78
1126.97
1127.67
1127.34
1127.19
1127.24
1127.52
1128.07
1127.82
1127.73
1127.83
1128.14
1127.98
1127.75
1127.68
1127.8
1128.11
1127.79
1127.53
1127.43
1127.52
1127.82
1127.69
1127.45
1127.38
1127.49
1127.8
1127.86
1127.66
1127.61
1127.75
1128.08
1128.06
1127.85
1127.81
1127.95
1128.28
1128.73
1128.53
1128.49
1128.63
1128.95
1128.61
1128.43
1128.4
1128.55
1128.88
1128.34
1128.12
1128.05
1128.18
1128.5
1128.23
1128.02
1127.97
1128.11
1128.43
1126.99
1126.58
1126.39
1126.4
1126.6
1127.04
1126.72
1126.59
1126.65
1126.94
1127.24
1126.88
1126.69
1126.71
1126.95
1127.25
1126.97
1126.87
1126.96
1127.26
1127.47
1127.22
1127.13
1127.23
1127.55
1127.45
1127.14
1126.99
1127.05
1127.33
1127.9
1127.69
1127.65
1127.78
1128.1
1128.37
1128.18
1128.15
1128.3
1128.64
1127.88
1127.66
1127.6
1127.72
1128.04
1127.51
1127.74
1127.53
1127.79
1126.93
1127.2
1126.92
1127.16
1127.55
1127.58
1127.8
1127.75
1126.94
1126.95
1127.19
1127.11
1128.11
1128.71
1128.33
1128.9
1128.12
1128.66
1128.37
1128.9
1128.38
1128.16
1128.25
1128.11
1128.57
1128.8
1128.11
1128.37
1127.99
1128.29
1127.52
1127.8
1127.36
1127.63
1128.68
1128.96
1128.51
1128.83
1129.11
1129.46
1129.25
1129.72
1129.41
1129.86
1129.22
1129.77
1129.43
1129.92
1129.12
1129.88
1129.26
1129.94
1129.55
1130.24
1129.95
1130.65
1127.76
1127.92
1127.88
1128.06
1127
1127.05
1127.13
1127.18
1128.61
1129.04
1128.5
1128.9
1128.08
1128.23
1128.33
1128.45
1127.32
1127.33
1127.55
1127.53
1128.8
1129.22
1129.07
1129.46
1129.35
1130.2
1130.06
1131.02
1129.28
1130.19
1129.94
1130.95
1129.54
1130.35
1130.24
1131.17
1129.83
1130.63
1130.48
1131.39
1129.3
1129.57
1129.82
1130.26
1129.25
1129.48
1129.9
1130.32
1129.17
1129.29
1130.04
1130.39
1127.73
1126.95
1128.5
1129.33
1130.37
1126.92
1127.67
1128.44
1129.31
1130.55
1126.99
1127.83
1128.8
1129.86
1130.95
1130.03
1130.23
1131.42
1131.82
1129.82
1130.02
1131.33
1131.74
1129.5
1129.67
1131.23
1131.64
1126.94
1127.04
1127.73
1127.86
1128.57
1128.7
1129.57
1129.74
1131.36
1131.8
1126.99
1127.1
1127.92
1128.19
1128.97
1129.32
1130.2
1130.61
1131.84
1132.37
1128.14
1128.61
1128.26
1128.74
1127.08
1127.12
1127.19
1127.2
1129.45
1130.15
1129.3
1129.96
1128.37
1128.92
1128.58
1129.18
1127.31
1127.36
1127.5
1127.57
1129.57
1130.35
1129.8
1130.63
1130.88
1131.78
1132.69
1133.83
1130.64
1131.51
1132.36
1133.43
1131.06
1131.99
1132.96
1134.14
1131.23
1132.23
1133.11
1134.27
1130.3
1130.47
1131.55
1131.57
1130.1
1130.29
1131.5
1131.5
1129.79
1130.07
1131.44
1131.46
1127.27
1127.67
1128.11
1128.48
1128.91
1129.24
1129.91
1130.21
1131.54
1131.53
1127.32
1127.75
1128.56
1128.95
1129.64
1129.94
1130.74
1130.86
1131.86
1131.77
1125.97
1125.95
1126.22
1126.11
1126.4
1126.38
1126.66
1126.55
1125.67
1125.45
1125.9
1125.67
1125.67
1125.47
1125.93
1125.71
1125.89
1125.67
1125.86
1125.69
1125.52
1125.72
1126.34
1126.62
1126.78
1127.04
1126.19
1126.5
1126.09
1126.37
1126.01
1126.3
1125.32
1125.23
1125.54
1125.44
1125.32
1125.21
1125.55
1125.42
1125.34
1125.19
1125.51
1125.34
1125.77
1125.57
1126.03
1125.78
1125.88
1125.86
1125.99
1125.94
1126.36
1126.36
1126.49
1126.46
1125.66
1125.59
1125.56
1125.53
1126.16
1126.06
1126.36
1126.22
1126.67
1126.6
1126.88
1126.77
1125.82
1125.7
1126.01
1125.83
1125.42
1125.26
1125.39
1125.3
1125.33
1125.2
1125.34
1125.26
1125.57
1125.37
1125.48
1125.37
1125.75
1125.51
1125.6
1125.47
1125.22
1125.26
1125.15
1125.21
1125.24
1125.28
1125.15
1125.22
1125.29
1125.32
1125.17
1125.23
1125.83
1126.31
1125.52
1125.31
1125.2
1126.32
1125.86
1125.55
1125.34
1125.25
1126.3
1125.83
1125.51
1125.33
1125.27
1125.42
1125.69
1125.4
1125.7
1125.42
1125.67
1125.39
1125.67
1125.42
1125.65
1125.37
1125.63
1126.32
1126.42
1125.86
1125.99
1125.58
1125.74
1125.4
1125.59
1125.35
1125.59
1126.27
1126.31
1125.81
1125.87
1125.51
1125.62
1125.37
1125.54
1125.36
1125.59
1125.79
1125.77
1125.89
1125.81
1126.28
1126.21
1126.39
1126.27
1125.58
1125.61
1125.51
1125.57
1126.04
1125.93
1126.19
1126.09
1126.56
1126.39
1126.73
1126.57
1125.71
1125.71
1125.85
1125.86
1125.44
1125.57
1125.45
1125.67
1125.38
1125.54
1125.39
1125.63
1125.53
1125.65
1125.53
1125.76
1125.66
1125.79
1125.63
1125.87
1126.02
1126.34
1126.12
1126.49
1125.98
1126.32
1126.09
1126.48
1125.95
1126.32
1126.04
1126.49
1126.65
1127.05
1126.24
1126.65
1126.01
1126.43
1125.89
1126.32
1126
1126.53
1126.49
1126.96
1126.08
1126.57
1125.9
1126.41
1125.88
1126.41
1126.05
1126.65
1125.41
1125.95
1126.87
1128.38
1125.6
1126.14
1127.07
1128.58
1125.4
1125.94
1126.86
1128.37
1125.58
1126.11
1127.04
1128.54
1125.39
1125.92
1126.8
1128.26
1125.5
1126.03
1126.91
1128.38
1125.71
1126.21
1127.12
1128.59
1125.86
1126.34
1127.23
1128.67
1125.44
1125.96
1126.81
1128.25
1125.53
1126.06
1126.83
1128.11
1125.41
1125.94
1126.76
1128.12
1125.51
1126.05
1126.81
1128.05
1125.52
1126.02
1126.9
1128.36
1125.57
1126.09
1126.86
1128.16
1125.62
1126.1
1126.96
1128.39
1125.64
1126.13
1126.9
1128.17
1125.35
1125.89
1126.76
1128.19
1125.43
1125.97
1126.76
1128.03
1125.36
1125.9
1126.76
1128.18
1125.45
1125.99
1126.77
1128.03
1125.39
1125.93
1126.75
1128.13
1125.47
1126.02
1126.79
1128.03
1125.44
1125.99
1126.76
1128.06
1125.51
1126.05
1126.8
1128
1125.53
1126.07
1126.8
1127.98
1125.64
1126.17
1126.92
1127.84
1125.9
1126.44
1127.2
1128.06
1125.64
1126.18
1126.91
1127.83
1125.9
1126.44
1127.2
1128.06
1125.64
1126.18
1126.92
1127.84
1125.91
1126.45
1127.21
1128.07
1125.65
1126.19
1126.92
1127.84
1125.92
1126.46
1127.22
1128.07
1125.66
1126.21
1126.93
1127.84
1125.93
1126.48
1127.23
1128.09
1125.74
1126.28
1127
1127.9
1125.99
1126.54
1127.28
1128.13
1125.69
1126.24
1126.96
1127.87
1125.95
1126.5
1127.25
1128.1
1125.81
1126.34
1127.05
1127.95
1126.05
1126.59
1127.32
1128.17
1125.88
1126.39
1127.09
1127.98
1126.14
1126.65
1127.37
1128.21
1130.58
1132.34
1133.82
1135.01
1135.93
1130.69
1132.43
1133.9
1135.09
1136.01
1130.58
1132.34
1133.82
1135.01
1135.93
1130.69
1132.42
1133.9
1135.09
1136.01
1130.57
1132.34
1133.82
1135.01
1135.93
1130.64
1132.37
1133.84
1135.04
1135.95
1130.71
1132.43
1133.9
1135.09
1136.01
1130.73
1132.44
1133.91
1135.09
1136.01
1130.59
1132.34
1133.82
1135.01
1135.93
1130.68
1132.48
1133.96
1135.15
1136.06
1130.59
1132.37
1133.85
1135.04
1135.96
1130.69
1132.5
1133.98
1135.17
1136.08
1130.61
1132.36
1133.83
1135.03
1135.94
1130.72
1132.51
1133.98
1135.17
1136.08
1130.63
1132.37
1133.84
1135.03
1135.94
1130.75
1132.53
1134
1135.19
1136.1
1130.59
1132.37
1133.86
1135.05
1135.97
1130.71
1132.52
1134.01
1135.2
1136.12
1130.59
1132.38
1133.87
1135.06
1135.98
1130.71
1132.53
1134.01
1135.21
1136.12
1130.61
1132.4
1133.89
1135.08
1136
1130.73
1132.54
1134.03
1135.22
1136.14
1130.66
1132.47
1133.95
1135.14
1136.06
1130.76
1132.58
1134.06
1135.25
1136.17
1130.75
1132.55
1134.03
1135.23
1136.14
1134.36
1134.68
1134.4
1134.73
1134.5
1134.84
1134.66
1134.99
1134.92
1135.21
1135.59
1135.96
1135.29
1135.61
1135.85
1136.25
1136.08
1136.49
1138.44
1142.57
1145.87
1148.36
1150
1138.35
1142.52
1145.87
1148.37
1150.04
1138.48
1142.59
1145.89
1148.37
1150.01
1138.4
1142.56
1145.89
1148.4
1150.06
1138.56
1142.65
1145.93
1148.4
1150.04
1138.48
1142.61
1145.93
1148.42
1150.08
1138.69
1142.74
1146
1148.45
1150.08
1138.6
1142.69
1145.98
1148.47
1150.12
1138.87
1142.86
1146.09
1148.52
1150.14
1138.75
1142.79
1146.06
1148.53
1150.17
1139.31
1143.17
1146.31
1148.7
1150.29
1139.23
1143.12
1146.29
1148.71
1150.32
1139.09
1143.01
1146.19
1148.61
1150.21
1138.97
1142.94
1146.16
1148.61
1150.24
1139.53
1143.33
1146.44
1148.8
1150.38
1139.48
1143.31
1146.43
1148.82
1150.41
1139.73
1143.5
1146.57
1148.91
1150.47
1139.71
1143.49
1146.58
1148.93
1150.52
1126.87
1127.28
1126.98
1126.55
1125.98
1126.22
1125.98
1126.25
1126.4
1126.69
1126.4
1126.65
1131.12
1131.04
1130.86
1130.56
1130.17
1129.69
1131.15
1131.08
1130.9
1130.62
1130.26
1129.84
1131.3
1131.59
1131.22
1131.49
1131.01
1131.26
1130.68
1130.87
1130.23
1130.38
1129.72
1129.88
1129.18
1128.69
1128.28
1127.94
1127.68
1127.49
1129.38
1128.94
1128.55
1128.22
1127.96
1127.78
1130.77
1130.63
1130.66
1130.84
1131.19
1130.69
1130.56
1130.58
1130.76
1131.11
1130.51
1130.37
1130.39
1130.57
1130.92
1130.21
1130.07
1130.09
1130.27
1130.62
1129.81
1129.66
1129.68
1129.86
1130.2
1129.33
1129.17
1129.18
1129.35
1129.7
1130.8
1130.66
1130.68
1130.87
1131.22
1130.73
1130.59
1130.61
1130.8
1131.14
1130.55
1130.41
1130.43
1130.61
1130.96
1130.27
1130.13
1130.15
1130.33
1130.67
1129.91
1129.76
1129.77
1129.95
1130.29
1129.47
1129.32
1129.32
1129.5
1129.84
1130.96
1130.82
1130.85
1131.03
1131.38
1131.24
1131.11
1131.13
1131.32
1131.66
1130.87
1130.74
1130.76
1130.95
1131.29
1131.15
1131.01
1131.03
1131.22
1131.56
1130.67
1130.53
1130.55
1130.73
1131.08
1130.91
1130.77
1130.79
1130.98
1131.32
1130.33
1130.19
1130.21
1130.39
1130.73
1130.52
1130.38
1130.4
1130.58
1130.93
1129.88
1129.73
1129.74
1129.92
1130.27
1130.03
1129.88
1129.89
1130.07
1130.41
1129.35
1129.2
1129.2
1129.38
1129.72
1129.51
1129.35
1129.36
1129.53
1129.88
1128.8
1128.64
1128.64
1128.8
1129.14
1128.31
1128.12
1128.11
1128.26
1128.6
1127.87
1127.67
1127.63
1127.77
1128.1
1127.5
1127.27
1127.2
1127.32
1127.64
1127.21
1126.95
1126.86
1126.96
1127.27
1127
1126.73
1126.62
1126.72
1127.02
1129.01
1128.85
1128.84
1129.01
1129.35
1128.56
1128.38
1128.36
1128.52
1128.86
1128.15
1127.95
1127.92
1128.06
1128.4
1127.8
1127.58
1127.53
1127.66
1127.99
1127.52
1127.29
1127.22
1127.35
1127.67
1127.33
1127.09
1127.02
1127.13
1127.45
1131.08
1130.93
1130.67
1130.29
1129.82
1129.26
1131.11
1130.96
1130.71
1130.36
1129.93
1129.43
1131.26
1131.54
1131.1
1131.37
1130.81
1131.05
1130.4
1130.58
1129.87
1130
1129.26
1129.38
1128.68
1128.14
1127.72
1127.44
1127.33
1127.37
1128.93
1128.46
1128.08
1127.82
1127.69
1127.68
1130.73
1130.59
1130.62
1130.8
1131.15
1130.58
1130.44
1130.47
1130.65
1131
1130.32
1130.18
1130.2
1130.39
1130.73
1129.94
1129.8
1129.82
1130.01
1130.36
1129.46
1129.32
1129.34
1129.52
1129.87
1128.9
1128.75
1128.76
1128.94
1129.29
1130.76
1130.62
1130.65
1130.83
1131.18
1130.61
1130.48
1130.5
1130.68
1131.03
1130.36
1130.22
1130.24
1130.43
1130.78
1130.01
1129.87
1129.89
1130.07
1130.42
1129.57
1129.42
1129.44
1129.62
1129.97
1129.07
1128.92
1128.93
1129.11
1129.46
1130.92
1130.78
1130.81
1130.99
1131.34
1131.2
1131.07
1131.09
1131.27
1131.62
1130.76
1130.62
1130.64
1130.83
1131.17
1131.02
1130.88
1130.91
1131.09
1131.44
1130.47
1130.33
1130.35
1130.54
1130.88
1130.7
1130.56
1130.58
1130.77
1131.12
1130.05
1129.91
1129.93
1130.11
1130.46
1130.23
1130.08
1130.11
1130.29
1130.64
1129.51
1129.37
1129.39
1129.57
1129.92
1129.64
1129.5
1129.52
1129.7
1130.05
1128.9
1128.75
1128.76
1128.94
1129.29
1129.02
1128.87
1128.89
1129.06
1129.41
1128.31
1128.15
1128.15
1128.33
1128.67
1127.76
1127.59
1127.58
1127.75
1128.09
1127.32
1127.13
1127.1
1127.26
1127.59
1127.01
1126.8
1126.75
1126.88
1127.21
1126.87
1126.63
1126.55
1126.66
1126.98
1126.88
1126.61
1126.51
1126.61
1126.92
1128.56
1128.4
1128.4
1128.57
1128.92
1128.08
1127.91
1127.9
1128.06
1128.41
1127.68
1127.49
1127.47
1127.63
1127.97
1127.4
1127.2
1127.16
1127.3
1127.63
1127.25
1127.03
1126.97
1127.1
1127.43
1127.24
1127
1126.93
1127.05
1127.37
1127.33
1127.26
1128.07
1128.67
1128.71
1128.85
1128.3
1126.97
1127.14
1127.04
1127.54
1127.47
1127.39
1127.76
1127.84
1128.07
1126.93
1126.97
1127.4
1127.44
1127.18
1127.25
1127.58
1127.66
1128.2
1128.2
1127.75
1127.74
1127.12
1127.12
1126.92
1127.08
1127.14
1126.96
1127.54
1128.02
1127.43
1126.56
1126.17
1126.01
1126.04
1126.27
1126.69
1126.36
1126.22
1126.28
1126.57
1127.69
1127.52
1127.52
1127.69
1128.03
1128.3
1128.15
1128.15
1128.33
1128.68
1128.34
1128.18
1128.18
1128.35
1128.7
1128.48
1128.32
1128.33
1128.51
1128.86
1127.92
1127.76
1127.76
1127.93
1128.28
1126.29
1125.94
1125.8
1125.85
1126.08
1126.48
1126.15
1126.02
1126.09
1126.34
1126.54
1126.26
1126.16
1126.25
1126.56
1126.95
1126.65
1126.55
1126.64
1126.93
1127.04
1126.83
1126.78
1126.92
1127.25
1126.93
1126.68
1126.61
1126.73
1127.05
1127.36
1127.16
1127.13
1127.28
1127.62
1127.43
1127.22
1127.18
1127.32
1127.66
1127.67
1127.48
1127.45
1127.6
1127.94
1126.26
1125.92
1125.79
1125.84
1126.08
1126.49
1126.23
1126.15
1126.25
1126.57
1126.98
1126.77
1126.73
1126.88
1127.21
1127.03
1126.83
1126.8
1126.95
1127.29
1126.75
1126.53
1126.48
1126.61
1126.94
1126.83
1126.63
1126.58
1126.72
1127.06
1127.18
1126.99
1126.97
1127.12
1127.46
1127.27
1127.08
1127.07
1127.22
1127.57
1127.81
1127.63
1127.62
1127.79
1128.13
1127.82
1127.65
1127.64
1127.81
1128.16
1127.35
1127.16
1127.14
1127.29
1127.63
1127.35
1127.17
1127.15
1127.31
1127.65
1126.4
1126.04
1125.89
1125.93
1126.17
1126.59
1126.3
1126.18
1126.27
1126.57
1126.35
1126.04
1125.92
1125.99
1126.25
1126.62
1126.37
1126.29
1126.4
1126.72
1126.71
1126.48
1126.43
1126.56
1126.88
1126.48
1126.22
1126.13
1126.23
1126.54
1127.14
1126.95
1126.92
1127.08
1127.42
1127.63
1127.46
1127.45
1127.62
1127.97
1127.02
1126.83
1126.8
1126.95
1127.28
1127.61
1127.28
1127.15
1127.2
1127.42
1127.85
1127.43
1127.46
1126.84
1126.83
1127.48
1127.53
1126.86
1126.89
1128.06
1128.72
1128.07
1128.66
1128.13
1128.1
1128.55
1127.41
1127.44
1126.82
1126.8
1127.47
1127.52
1126.84
1126.88
1128.1
1128.8
1128.1
1128.72
1128.16
1128.11
1128.6
1127.42
1127.45
1126.81
1126.79
1127.49
1127.54
1126.84
1126.88
1128.13
1128.98
1128.14
1128.87
1128.19
1128.14
1128.73
1127.54
1127.57
1126.92
1126.9
1127.61
1127.67
1126.95
1126.99
1128.3
1129.19
1128.29
1129.08
1128.34
1128.28
1128.91
1127.75
1127.78
1127.13
1127.11
1127.82
1127.89
1127.16
1127.21
1128.51
1129.35
1128.51
1129.26
1128.54
1128.5
1129.1
1128.13
1128.16
1127.52
1127.5
1128.19
1128.25
1127.55
1127.59
1128.85
1129.62
1128.84
1129.54
1128.87
1128.82
1129.37
1125.89
1125.88
1126.31
1126.31
1125.89
1125.9
1126.32
1126.34
1125.58
1125.35
1125.6
1125.38
1125.6
1125.64
1125.45
1125.86
1125.86
1126.29
1126.28
1125.88
1125.9
1126.3
1126.32
1125.54
1125.35
1125.56
1125.39
1125.58
1125.64
1125.47
1125.85
1125.85
1126.28
1126.26
1125.88
1125.91
1126.3
1126.33
1125.56
1125.43
1125.59
1125.47
1125.62
1125.68
1125.54
1125.95
1125.97
1126.38
1126.37
1126
1126.04
1126.41
1126.44
1125.69
1125.63
1125.73
1125.67
1125.78
1125.84
1125.73
1126.18
1126.19
1126.6
1126.58
1126.24
1126.29
1126.63
1126.66
1125.95
1125.92
1125.98
1125.95
1126.04
1126.11
1126
1126.59
1126.61
1127
1126.99
1126.65
1126.69
1127.03
1127.06
1126.36
1126.29
1126.4
1126.32
1126.44
1126.51
1126.38
1130.92
1130.82
1130.61
1130.44
1130.16
1129.99
1129.53
1129.39
1129.65
1129.49
1130.15
1129.98
1130.51
1130.35
1130.79
1130.68
1130.02
1129.8
1129.73
1129.42
1129.26
1128.98
1128.99
1128.63
1131.32
1131.96
1131.2
1131.8
1131.02
1131.65
1130.84
1131.42
1130.38
1130.73
1130.07
1130.5
1131.27
1130.9
1129.36
1128.81
1129.06
1128.65
1128.66
1128.2
1128.31
1127.96
1130.01
1129.44
1129.69
1129.26
1130.53
1129.98
1132.7
1133.14
1132.4
1132.86
1132.39
1132.94
1132.02
1132.53
1131.93
1132.68
1131.37
1132.07
1130.94
1131.63
1130.45
1131.15
1129.86
1129.76
1129.39
1129.34
1128.85
1128.72
1128.47
1128.35
1130.27
1130.4
1130.82
1130.85
1128.99
1128.99
1128.62
1128.7
1128.14
1128.03
1127.82
1127.76
1129.81
1130.03
1129.41
1129.72
1131.13
1131.97
1131.45
1132.39
1131.73
1132.59
1131.92
1132.9
1130.63
1131.45
1131.06
1131.99
1130.19
1130.99
1130.76
1131.67
1133.76
1134.73
1133.91
1134.87
1133.46
1134.36
1133.75
1134.67
1132.97
1133.66
1133.48
1134.24
1130.53
1129.34
1131.61
1132.43
1133.31
1129.5
1130.77
1132.06
1132.93
1133.88
1129.2
1130.32
1131.41
1132.44
1133.45
1135.62
1136.05
1136.1
1136.49
1135.15
1135.65
1135.79
1136.21
1134.37
1134.93
1135.27
1135.77
1129.78
1130.23
1131.16
1131.78
1132.43
1133.07
1133.44
1134.08
1134.78
1135.42
1129.4
1129.77
1130.66
1131.3
1131.84
1132.58
1133.02
1133.81
1134.5
1135.33
1130.08
1130.8
1129.56
1130.2
1128.84
1129.05
1128.38
1128.49
1130.81
1131.67
1131.32
1132.23
1129.11
1129.76
1128.83
1129.44
1128
1128.11
1127.73
1127.81
1130.35
1131.22
1130.06
1130.91
1132.24
1133.27
1134
1135.25
1132.65
1133.73
1134.27
1135.5
1131.86
1132.86
1133.73
1134.97
1131.5
1132.51
1133.36
1134.53
1136.18
1136.36
1136.72
1136.27
1136.34
1136.66
1135.88
1136.11
1136.49
1136.04
1136.13
1136.48
1135.28
1135.59
1136.01
1135.71
1135.85
1136.24
1130.79
1131.43
1132.1
1132.43
1132.99
1133.59
1133.68
1134.15
1134.68
1134.57
1134.97
1135.47
1135.45
1135.65
1136.11
1130.28
1131
1131.76
1132.16
1132.91
1133.67
1133.45
1134.1
1134.78
1134.48
1134.97
1135.57
1135.43
1135.7
1136.23
1127.9
1127.67
1127.7
1127.4
1128.52
1128.23
1128.28
1127.93
1127.78
1127.3
1127.73
1127.28
1127.64
1127.21
1127.54
1127.14
1127.22
1127.41
1127.09
1127.32
1127.13
1126.97
1127.17
1126.9
1127.65
1127.35
1127.08
1126.83
1126.9
1126.66
1126.87
1126.62
1126.82
1126.39
1126.91
1126.5
1126.76
1126.32
1126.78
1126.37
1126.7
1126.22
1126.59
1126.15
1126.51
1126.12
1126.3
1125.98
1127.37
1127.16
1127.1
1126.88
1128.01
1127.83
1127.7
1127.51
1126.68
1126.42
1126.92
1126.67
1126.84
1126.63
1126.59
1126.41
1127.41
1127.23
1127.12
1126.98
1126.46
1126.19
1126.22
1126
1126.33
1125.96
1126.11
1125.88
1126.52
1126.11
1126.33
1126.07
1126.15
1125.81
1125.92
1125.72
1125.95
1125.66
1125.75
1125.59
1126.83
1127.04
1126.44
1126.65
1126.83
1127.04
1126.41
1126.63
1126.82
1127.01
1126.36
1126.56
1127.56
1128.32
1127.08
1126.7
1126.3
1128.47
1127.72
1127.27
1126.9
1126.48
1128.18
1127.44
1126.91
1126.55
1126.25
1127.39
1127.88
1127.01
1127.49
1127.36
1127.83
1126.95
1127.41
1127.29
1127.74
1126.84
1127.27
1128.67
1129.05
1127.88
1128.26
1127.42
1127.81
1127.07
1127.47
1126.67
1127.07
1128.3
1128.52
1127.54
1127.77
1127.03
1127.29
1126.69
1127.02
1126.44
1126.85
1127.12
1127.2
1126.82
1126.82
1127.81
1127.86
1127.46
1127.4
1126.42
1126.51
1126.67
1126.84
1126.6
1126.53
1126.38
1126.28
1127.18
1127.07
1126.93
1126.79
1126.21
1126.25
1126.02
1126.04
1126.16
1126.37
1126.05
1126.38
1126.4
1126.67
1126.23
1126.6
1125.97
1126.13
1125.89
1126.18
1125.81
1125.95
1125.75
1126
1128.55
1129.21
1129.84
1128.31
1129.06
1129.68
1128.46
1129.13
1129.77
1128.2
1128.95
1129.61
1128.33
1128.98
1129.63
1128.02
1128.81
1129.51
1129.56
1130.2
1130.88
1128.78
1129.44
1130.14
1128.35
1129.04
1129.75
1128.04
1128.73
1129.42
1127.83
1128.66
1129.42
1128.93
1129.62
1130.4
1128.19
1128.9
1129.68
1127.78
1128.53
1129.34
1127.6
1128.39
1129.2
1127.64
1128.51
1129.35
1126.21
1126.49
1127.24
1128.63
1126.34
1126.64
1127.42
1128.81
1126.16
1126.45
1127.2
1128.6
1126.24
1126.56
1127.34
1128.74
1126.09
1126.39
1127.12
1128.47
1126.05
1126.4
1127.17
1128.56
1126.08
1126.47
1127.29
1128.71
1126
1126.43
1127.29
1128.72
1125.92
1126.29
1127.04
1128.41
1125.94
1126.34
1127.03
1128.26
1126.04
1126.37
1127.05
1128.32
1126.07
1126.43
1127.07
1128.23
1125.82
1126.23
1127.04
1128.46
1125.83
1126.26
1126.99
1128.25
1125.72
1126.17
1127.01
1128.43
1125.73
1126.19
1126.94
1128.2
1126.23
1126.48
1127.17
1128.47
1126.41
1126.62
1127.2
1128.34
1126.22
1126.48
1127.15
1128.44
1126.4
1126.62
1127.2
1128.32
1126.2
1126.47
1127.12
1128.38
1126.36
1126.61
1127.19
1128.3
1126.19
1126.49
1127.1
1128.29
1126.33
1126.6
1127.17
1128.25
1126.21
1126.53
1127.12
1128.2
1126.68
1126.85
1127.38
1128.19
1126.98
1127.13
1127.67
1128.43
1126.65
1126.84
1127.36
1128.17
1126.95
1127.12
1127.66
1128.42
1126.58
1126.8
1127.34
1128.16
1126.89
1127.09
1127.65
1128.41
1126.5
1126.76
1127.31
1128.13
1126.8
1127.05
1127.62
1128.39
1126.38
1126.69
1127.26
1128.09
1126.71
1127
1127.59
1128.37
1126.16
1126.57
1127.2
1128.06
1126.45
1126.85
1127.5
1128.31
1126.27
1126.63
1127.23
1128.08
1126.58
1126.93
1127.55
1128.34
1126.06
1126.51
1127.17
1128.05
1126.34
1126.78
1127.46
1128.28
1125.97
1126.45
1127.13
1128.02
1126.23
1126.72
1127.42
1128.24
1130.73
1132.43
1133.87
1135.05
1135.96
1130.84
1132.52
1133.96
1135.13
1136.04
1130.72
1132.42
1133.87
1135.05
1135.95
1130.81
1132.5
1133.94
1135.12
1136.03
1130.69
1132.41
1133.86
1135.04
1135.95
1130.74
1132.43
1133.88
1135.06
1135.97
1130.78
1132.48
1133.93
1135.11
1136.02
1130.76
1132.46
1133.92
1135.1
1136.01
1130.68
1132.4
1133.86
1135.04
1135.95
1130.76
1132.53
1133.99
1135.17
1136.08
1130.7
1132.43
1133.89
1135.07
1135.98
1130.79
1132.55
1134.01
1135.19
1136.1
1130.68
1132.4
1133.86
1135.04
1135.95
1130.77
1132.54
1134
1135.18
1136.09
1130.65
1132.38
1133.84
1135.03
1135.94
1130.77
1132.54
1134.01
1135.19
1136.1
1130.74
1132.46
1133.91
1135.09
1136
1130.87
1132.61
1134.07
1135.24
1136.15
1130.74
1132.47
1133.92
1135.1
1136.01
1130.86
1132.62
1134.07
1135.25
1136.15
1130.74
1132.48
1133.94
1135.11
1136.02
1130.86
1132.62
1134.08
1135.26
1136.16
1130.78
1132.54
1133.99
1135.17
1136.08
1130.89
1132.65
1134.11
1135.28
1136.19
1130.85
1132.62
1134.07
1135.25
1136.16
1138.15
1138.43
1138.02
1138.31
1137.8
1138.11
1137.51
1137.88
1137.22
1137.65
1136.77
1137.27
1137
1137.49
1136.55
1137.02
1136.31
1136.74
1141.2
1144.54
1147.34
1149.52
1151.01
1141.15
1144.51
1147.34
1149.54
1151.06
1141.14
1144.51
1147.32
1149.51
1151
1141.1
1144.49
1147.33
1149.54
1151.05
1141.03
1144.44
1147.28
1149.48
1150.98
1140.99
1144.43
1147.29
1149.51
1151.02
1140.88
1144.35
1147.22
1149.43
1150.94
1140.85
1144.35
1147.23
1149.47
1150.99
1140.7
1144.24
1147.14
1149.37
1150.89
1140.7
1144.25
1147.16
1149.41
1150.95
1140.32
1143.96
1146.93
1149.2
1150.74
1140.36
1144
1146.98
1149.26
1150.81
1140.51
1144.1
1147.04