/*--------------------------------*- C++ -*----------------------------------*\
  =========                 |
  \\      /  F ield         | OpenFOAM: The Open Source CFD Toolbox
   \\    /   O peration     | Website:  https://openfoam.org
    \\  /    A nd           | Version:  13
     \\/     M anipulation  |
\*---------------------------------------------------------------------------*/
FoamFile
{
    format      ascii;
    class       volScalarField;
    location    "434.831886";
    object      T;
}
// * * * * * * * * * * * * * * * * * * * * * * * * * * * * * * * * * * * * * //

dimensions      [0 0 0 1 0 0 0];

internalField   nonuniform List<scalar> 
5712
(
301.818
301.857
301.918
301.977
302.042
302.107
302.185
302.243
302.119
302.186
302.005
302.069
301.91
301.967
301.831
301.874
302.116
302.209
302.225
302.353
302.297
302.412
302.406
302.557
301.736
301.592
301.775
301.636
301.836
301.694
301.898
301.758
302.067
301.951
302.182
302.033
301.82
301.933
302.355
302.557
302.488
302.644
302.531
302.715
302.687
302.829
302.192
302.392
302.316
302.473
302.05
302.241
301.425
301.308
301.491
301.364
301.526
301.378
301.61
301.467
301.673
301.477
301.826
301.629
301.957
301.756
302.124
301.912
302.221
302.269
302.393
302.428
302.467
302.516
302.622
302.67
302.168
302.17
301.986
302.013
302.544
302.562
302.686
302.677
302.762
302.8
302.896
302.912
302.327
302.304
302.475
302.417
301.944
301.711
301.912
301.67
301.764
301.541
301.76
301.52
302.102
301.864
302.042
301.796
302.253
302.008
302.151
301.901
301.173
300.951
301.133
300.923
301.261
301.044
301.188
300.982
301.404
301.225
301.28
301.104
302.001
302.271
301.752
301.568
301.358
302.2
301.915
301.613
301.423
301.215
302.328
302.073
301.829
301.599
301.366
300.749
300.619
300.678
300.567
300.852
300.702
300.75
300.629
301.039
300.865
300.879
300.736
302.088
301.903
301.784
301.563
301.499
301.285
301.284
301.084
301.02
300.84
302.239
302.081
301.956
301.735
301.697
301.463
301.446
301.209
301.138
300.911
302.165
301.924
302.347
302.125
302.452
302.321
302.628
302.518
302.054
301.8
301.883
301.616
302.502
302.281
302.613
302.399
302.773
302.664
302.883
302.783
302.209
301.95
302.316
302.062
301.73
301.459
301.348
301.057
301.59
301.305
301.245
300.957
301.856
301.593
301.441
301.155
301.975
301.705
301.554
301.28
300.52
300.415
300.297
300.52
300.431
300.316
300.584
300.467
300.34
300.571
300.474
300.35
300.716
300.576
300.434
300.651
300.534
300.394
301.681
301.445
301.21
301.32
301.11
300.905
301.063
300.872
300.691
300.891
300.718
300.547
300.721
300.577
300.414
301.861
301.583
301.308
301.431
301.157
300.901
301.158
300.905
300.676
300.944
300.725
300.519
300.738
300.564
300.376
302.616
302.717
302.711
302.844
302.472
302.59
302.575
302.726
302.555
302.686
302.583
302.701
302.629
302.742
302.676
302.778
302.831
302.739
302.905
302.791
302.805
302.883
302.952
303.079
302.849
302.982
302.9
303.032
302.998
303.115
302.936
303.063
302.826
302.951
302.802
302.907
302.871
302.992
302.872
302.972
302.925
303.048
302.99
303.087
303.041
303.11
303.148
303.187
302.82
302.897
302.953
303.032
302.669
302.732
302.812
302.877
303.044
303.139
302.922
303.016
303.076
303.148
303.197
303.249
302.944
303.001
303.07
303.108
303.157
303.245
303.272
303.338
303.116
303.186
303.198
303.216
303.015
303.104
303.089
303.125
303.212
303.26
303.293
303.295
303.316
303.339
303.376
303.364
302.774
302.667
302.92
302.818
302.795
302.682
302.94
302.834
302.829
302.727
302.973
302.879
302.696
302.51
302.81
302.911
303.012
302.44
302.62
302.711
302.811
302.928
302.57
302.756
302.892
302.98
303.035
302.51
302.31
302.661
302.464
302.537
302.342
302.692
302.503
302.595
302.406
302.753
302.575
302.344
302.175
302.536
302.36
302.638
302.46
302.728
302.548
302.843
302.671
302.5
302.378
302.69
302.565
302.822
302.684
302.902
302.744
302.951
302.772
302.877
302.787
303.014
302.946
302.705
302.619
302.857
302.798
303.106
303.01
302.984
302.869
303.123
303.072
303.222
303.179
302.979
302.935
303.085
303.051
303.207
303.126
303.298
303.224
303.146
303.017
303.132
302.971
303.037
302.889
303.047
302.873
303.237
303.125
303.206
303.06
303.318
303.211
303.277
303.145
302.05
301.8
301.572
302.141
301.856
301.625
302.094
301.839
301.604
302.191
301.901
301.658
302.168
301.913
301.671
302.273
301.965
301.703
301.962
301.717
301.468
302.139
301.882
301.622
302.235
301.965
301.697
302.31
302.035
301.769
302.361
302.033
301.744
302.185
301.903
301.61
302.363
302.071
301.767
302.461
302.151
301.836
302.491
302.167
301.849
302.443
302.093
301.773
302.97
302.822
302.524
302.047
302.914
302.758
302.456
301.982
302.998
302.842
302.541
302.058
302.964
302.796
302.487
302.007
303.035
302.868
302.574
302.102
303.054
302.87
302.559
302.076
303.047
302.846
302.516
302.027
303.091
302.867
302.523
302.03
303.122
302.923
302.611
302.126
303.111
302.896
302.605
302.164
303.061
302.88
302.598
302.149
303.045
302.85
302.581
302.167
303.173
302.955
302.619
302.114
303.169
302.938
302.627
302.172
303.225
302.989
302.639
302.135
303.221
302.974
302.653
302.195
302.957
302.821
302.546
302.093
302.874
302.754
302.517
302.119
302.966
302.825
302.552
302.102
302.879
302.754
302.518
302.123
302.979
302.828
302.562
302.123
302.899
302.761
302.523
302.132
302.985
302.821
302.565
302.149
302.918
302.767
302.53
302.147
302.98
302.803
302.556
302.169
302.749
302.645
302.43
302.129
302.613
302.518
302.3
302.011
302.766
302.654
302.437
302.135
302.63
302.527
302.304
302.014
302.797
302.67
302.446
302.142
302.66
302.541
302.312
302.02
302.842
302.694
302.464
302.156
302.701
302.562
302.324
302.029
302.898
302.726
302.485
302.171
302.747
302.586
302.338
302.038
303.005
302.788
302.517
302.188
302.865
302.656
302.382
302.067
302.952
302.757
302.5
302.178
302.807
302.62
302.359
302.052
303.053
302.818
302.533
302.198
302.92
302.69
302.403
302.084
303.1
302.849
302.555
302.215
302.972
302.723
302.425
302.101
301.404
300.92
300.533
300.238
300.026
301.369
300.894
300.511
300.219
300.008
301.41
300.923
300.535
300.239
300.027
301.377
300.899
300.515
300.221
300.01
301.419
300.927
300.537
300.241
300.028
301.405
300.92
300.532
300.236
300.024
301.393
300.908
300.521
300.226
300.014
301.405
300.916
300.526
300.23
300.017
301.427
300.931
300.54
300.243
300.029
301.397
300.894
300.506
300.212
300.002
301.418
300.921
300.531
300.235
300.023
301.386
300.885
300.498
300.206
299.996
301.43
300.933
300.54
300.243
300.029
301.396
300.892
300.503
300.209
299.998
301.442
300.94
300.545
300.246
300.032
301.401
300.893
300.503
300.208
299.997
301.399
300.908
300.522
300.228
300.017
301.355
300.863
300.482
300.192
299.984
301.401
300.908
300.521
300.227
300.016
301.357
300.863
300.482
300.192
299.984
301.401
300.905
300.517
300.223
300.012
301.357
300.862
300.48
300.19
299.982
301.389
300.889
300.503
300.21
300
301.351
300.855
300.473
300.184
299.976
301.364
300.866
300.482
300.192
299.983
300.335
300.28
300.369
300.313
300.434
300.37
300.521
300.442
300.616
300.518
300.783
300.675
300.703
300.594
300.858
300.756
300.931
300.84
299.884
299.443
299.108
298.872
298.724
299.886
299.443
299.106
298.87
298.72
299.9
299.45
299.113
298.875
298.726
299.902
299.45
299.111
298.871
298.721
299.932
299.467
299.122
298.881
298.73
299.933
299.466
299.119
298.877
298.725
299.977
299.49
299.135
298.889
298.736
299.973
299.487
299.132
298.884
298.73
300.031
299.52
299.153
298.9
298.744
300.019
299.513
299.146
298.894
298.737
300.147
299.592
299.198
298.93
298.766
300.13
299.58
299.188
298.921
298.758
300.089
299.556
299.175
298.914
298.754
300.072
299.544
299.165
298.906
298.746
300.202
299.629
299.222
298.946
298.778
300.19
299.62
299.214
298.939
298.771
300.256
299.665
299.246
298.963
298.791
300.252
299.66
299.242
298.958
298.785
302.948
302.85
302.685
302.796
302.448
302.479
302.505
302.549
302.493
302.549
302.353
302.413
302.243
302.311
302.342
302.401
302.367
302.412
302.354
302.388
302.74
302.684
301.918
301.687
301.647
301.61
301.812
302.29
302.064
302.208
301.839
301.557
302.039
302.03
301.791
301.938
301.871
301.808
302.446
302.324
302.107
302.121
302.229
302.245
302.136
302.057
301.797
301.819
301.973
301.997
302.64
302.584
302.525
302.463
302.349
302.407
302.126
301.913
302.15
302.987
303.093
303.117
303.067
302.943
302.886
302.986
303.008
302.949
302.801
302.062
302.124
302.123
302.055
301.92
301.82
301.876
301.871
301.805
301.678
301.78
301.837
301.834
301.77
301.644
301.74
301.795
301.791
301.726
301.601
301.951
302.011
302.009
301.943
301.811
302.542
302.677
302.733
302.712
302.619
302.323
302.465
302.525
302.507
302.408
302.405
302.516
302.557
302.518
302.389
302.074
302.208
302.26
302.236
302.127
301.774
301.905
301.955
301.933
301.83
302.206
302.29
302.309
302.254
302.122
302.212
302.312
302.345
302.301
302.174
301.96
302.052
302.081
302.038
301.917
302.094
302.17
302.182
302.124
301.993
302.03
302.111
302.128
302.075
301.948
301.958
302.03
302.04
301.983
301.855
302.689
302.805
302.847
302.815
302.708
302.511
302.609
302.638
302.587
302.45
302.27
302.351
302.364
302.305
302.169
302.281
302.357
302.366
302.302
302.164
302.399
302.484
302.5
302.441
302.302
302.41
302.489
302.499
302.435
302.294
302.292
302.362
302.365
302.298
302.157
302.21
302.279
302.282
302.215
302.078
301.94
302.004
302.007
301.945
301.815
301.96
302.023
302.023
301.958
301.827
302.126
302.198
302.205
302.143
302.009
302.148
302.218
302.222
302.157
302.021
302.881
302.991
303.021
302.977
302.861
302.778
302.874
302.896
302.837
302.69
302.738
302.841
302.873
302.827
302.701
302.643
302.731
302.747
302.685
302.539
302.52
302.603
302.615
302.551
302.407
302.594
302.69
302.716
302.662
302.522
302.282
302.353
302.358
302.291
302.151
302.058
302.121
302.122
302.055
301.921
302.31
302.384
302.392
302.327
302.187
303.128
303.009
303.122
302.991
303.284
303.146
303.289
303.165
303.116
303.106
302.994
303.027
303.281
303.272
303.159
303.197
302.954
302.774
302.843
302.672
302.954
302.794
302.828
302.672
302.834
302.944
302.886
302.961
302.821
302.71
302.851
302.732
302.918
302.792
303.007
302.883
303.089
302.969
302.7
302.576
302.773
302.636
302.574
302.435
302.598
302.429
302.504
302.342
302.619
302.424
302.504
302.33
302.663
302.414
302.578
302.35
302.453
302.225
302.303
302.079
303.047
302.991
302.992
302.935
303.244
303.215
303.189
303.163
302.796
302.676
302.85
302.734
302.908
302.864
302.805
302.778
303.107
303.095
303.008
303.011
302.71
302.606
302.601
302.518
302.58
302.314
302.404
302.135
302.627
302.348
302.456
302.175
302.495
302.24
302.336
302.075
302.383
302.135
302.249
301.995
302.627
302.583
302.447
302.373
302.648
302.61
302.434
302.36
302.678
302.659
302.406
302.344
303.062
303.264
302.861
302.635
302.331
303.271
303.081
302.882
302.649
302.303
303.243
303.024
302.769
302.488
302.191
302.481
302.399
302.126
301.997
302.532
302.451
302.142
302.013
302.607
302.535
302.16
302.029
303.256
303.191
303.056
302.987
302.841
302.776
302.58
302.508
302.121
301.986
303.228
303.151
302.989
302.875
302.716
302.589
302.405
302.268
301.999
301.846
302.911
302.735
302.852
302.673
303.183
303.107
303.126
303.052
302.553
302.336
302.615
302.405
302.796
302.597
302.71
302.501
303.061
302.976
302.978
302.884
302.499
302.261
302.412
302.162
302.202
301.957
301.775
301.502
302.28
302.037
301.867
301.605
302.135
301.884
301.693
301.414
302.069
301.802
301.635
301.361
302.323
302.224
301.984
301.921
302.376
302.268
301.994
301.93
302.449
302.309
301.999
301.919
303.067
302.863
302.861
302.671
302.665
302.497
302.407
302.245
301.963
301.871
303.013
302.789
302.703
302.499
302.431
302.258
302.153
302.02
301.851
301.764
303.521
303.523
303.398
303.446
303.419
303.418
303.294
303.342
303.581
303.61
303.458
303.49
303.58
303.609
303.447
303.48
303.47
303.581
303.498
303.577
303.603
303.493
303.337
303.212
303.237
303.116
303.325
303.188
303.384
303.253
303.35
303.218
303.609
303.571
303.492
303.46
303.617
303.581
303.491
303.466
303.628
303.595
303.536
303.514
303.406
303.395
303.28
303.29
303.53
303.515
303.476
303.473
303.408
303.395
303.354
303.347
303.547
303.544
303.599
303.581
303.397
303.413
303.302
303.338
303.274
303.282
303.178
303.203
303.468
303.489
303.375
303.42
303.58
303.553
303.562
303.518
303.629
303.589
303.595
303.542
303.503
303.492
303.513
303.479
303.413
303.418
303.451
303.426
303.664
303.651
303.618
303.594
303.664
303.649
303.617
303.59
303.658
303.645
303.611
303.586
303.547
303.428
303.615
303.642
303.591
303.427
303.543
303.61
303.634
303.576
303.42
303.535
303.596
303.607
303.548
303.579
303.449
303.51
303.376
303.587
303.465
303.517
303.388
303.598
303.488
303.526
303.407
303.416
303.351
303.531
303.458
303.587
303.503
303.598
303.502
303.525
303.416
303.414
303.358
303.526
303.464
303.578
303.5
303.576
303.477
303.504
303.393
303.507
303.458
303.454
303.415
303.391
303.353
303.331
303.304
303.51
303.444
303.556
303.481
303.383
303.352
303.308
303.271
303.256
303.235
303.177
303.149
303.448
303.386
303.378
303.309
303.508
303.409
303.435
303.313
303.548
303.439
303.472
303.348
303.456
303.36
303.388
303.264
303.393
303.291
303.337
303.211
303.289
303.137
303.181
303.009
303.316
303.152
303.195
303.013
303.344
303.158
303.214
303.002
303.226
303.017
303.324
303.112
303.367
303.156
303.355
303.138
303.222
302.972
303.233
302.995
303.33
303.084
303.349
303.097
303.304
303.047
303.181
302.901
303.404
303.114
302.721
302.176
303.306
303.024
302.636
302.101
303.409
303.12
302.727
302.177
303.314
303.035
302.649
302.113
303.412
303.123
302.746
302.211
303.351
303.073
302.698
302.167
303.245
302.982
302.609
302.088
303.162
302.916
302.557
302.053
303.379
303.099
302.733
302.209
303.327
303.045
302.711
302.24
303.397
303.109
302.756
302.253
303.341
303.052
302.721
302.263
303.336
303.068
302.698
302.17
303.302
303.029
302.694
302.222
303.282
303.028
302.667
302.154
303.266
303.005
302.675
302.212
303.439
303.143
302.763
302.236
303.398
303.101
302.751
302.276
303.432
303.137
302.761
302.238
303.388
303.091
302.744
302.274
303.415
303.121
302.758
302.249
303.373
303.077
302.735
302.272
303.383
303.089
302.746
302.265
303.354
303.058
302.725
302.275
303.339
303.046
302.722
302.28
303.299
303.002
302.67
302.305
303.167
302.875
302.54
302.193
303.298
303.001
302.67
302.306
303.166
302.873
302.539
302.191
303.293
302.996
302.666
302.302
303.16
302.867
302.533
302.188
303.285
302.99
302.663
302.3
303.153
302.86
302.528
302.184
303.273
302.978
302.658
302.298
303.141
302.848
302.519
302.176
303.22
302.936
302.622
302.27
303.101
302.815
302.494
302.154
303.25
302.959
302.641
302.285
303.126
302.835
302.509
302.168
303.184
302.908
302.598
302.25
303.064
302.787
302.472
302.137
303.144
302.879
302.576
302.233
303.019
302.755
302.448
302.119
301.478
300.964
300.559
300.255
300.038
301.439
300.935
300.536
300.235
300.02
301.477
300.962
300.559
300.254
300.038
301.438
300.935
300.536
300.235
300.02
301.479
300.962
300.558
300.254
300.038
301.456
300.95
300.55
300.248
300.032
301.428
300.929
300.534
300.234
300.02
301.418
300.924
300.531
300.233
300.019
301.473
300.958
300.556
300.253
300.037
301.438
300.918
300.52
300.221
300.008
301.473
300.953
300.55
300.247
300.032
301.435
300.913
300.515
300.216
300.004
301.462
300.951
300.552
300.25
300.034
301.423
300.908
300.512
300.215
300.003
301.453
300.947
300.549
300.249
300.034
301.41
300.899
300.506
300.21
299.999
301.477
300.953
300.549
300.245
300.029
301.434
300.908
300.509
300.21
299.997
301.474
300.95
300.546
300.243
300.027
301.432
300.906
300.507
300.208
299.996
301.467
300.942
300.54
300.238
300.023
301.426
300.901
300.503
300.205
299.993
301.447
300.923
300.523
300.223
300.009
301.412
300.89
300.494
300.197
299.986
301.417
300.896
300.5
300.203
299.991
301.449
301.374
301.437
301.361
301.411
301.334
301.369
301.294
301.303
301.24
301.135
301.058
301.212
301.144
301.066
300.981
300.999
300.913
300.617
299.899
299.399
299.067
298.869
300.631
299.905
299.399
299.065
298.864
300.608
299.893
299.395
299.064
298.867
300.619
299.897
299.395
299.061
298.862
300.589
299.881
299.388
299.059
298.863
300.6
299.885
299.388
299.056
298.858
300.559
299.863
299.376
299.052
298.858
300.573
299.869
299.377
299.05
298.853
300.516
299.837
299.36
299.041
298.849
300.537
299.848
299.364
299.041
298.847
300.412
299.772
299.318
299.012
298.828
300.426
299.78
299.321
299.012
298.826
300.465
299.806
299.34
299.027
298.839
300.486
299.818
299.345
299.028
298.838
300.36
299.737
299.295
298.996
298.816
300.366
299.74
299.295
298.995
298.813
300.308
299.701
299.271
298.98
298.804
300.309
299.7
299.268
298.976
298.799
303.106
303.013
303.142
303.241
303.52
303.395
303.52
303.382
303.419
303.278
303.42
303.296
300.903
300.933
301.006
301.123
301.283
301.481
300.901
300.929
300.999
301.109
301.256
301.433
300.844
300.761
300.877
300.797
300.957
300.886
301.087
301.032
301.264
301.224
301.475
301.428
301.703
301.925
302.132
302.32
302.471
302.578
301.628
301.827
302.015
302.182
302.316
302.408
301.005
301.045
301.037
300.982
300.88
301.036
301.076
301.069
301.013
300.91
301.111
301.153
301.146
301.089
300.984
301.233
301.277
301.27
301.211
301.102
301.399
301.446
301.44
301.379
301.264
301.605
301.657
301.651
301.587
301.466
301.003
301.043
301.035
300.98
300.878
301.032
301.073
301.065
301.01
300.907
301.104
301.146
301.139
301.083
300.978
301.218
301.263
301.256
301.197
301.089
301.371
301.418
301.412
301.351
301.238
301.555
301.606
301.6
301.538
301.418
300.943
300.982
300.975
300.921
300.821
300.857
300.895
300.888
300.836
300.739
300.977
301.017
301.01
300.955
300.854
300.895
300.934
300.927
300.874
300.775
301.061
301.102
301.095
301.039
300.935
300.987
301.027
301.02
300.966
300.864
301.195
301.239
301.232
301.174
301.066
301.139
301.181
301.174
301.118
301.011
301.379
301.426
301.42
301.359
301.245
301.338
301.384
301.378
301.318
301.206
301.599
301.651
301.645
301.581
301.46
301.551
301.602
301.596
301.534
301.415
301.837
301.893
301.889
301.823
301.694
302.069
302.132
302.13
302.062
301.927
302.287
302.356
302.358
302.29
302.149
302.486
302.563
302.57
302.502
302.357
302.647
302.732
302.743
302.677
302.528
302.761
302.849
302.862
302.796
302.645
301.759
301.814
301.81
301.745
301.62
301.967
302.027
302.025
301.958
301.827
302.164
302.23
302.231
302.163
302.026
302.34
302.412
302.416
302.348
302.206
302.482
302.558
302.564
302.496
302.351
302.578
302.657
302.664
302.595
302.447
300.917
300.975
301.076
301.223
301.414
301.646
300.915
300.971
301.068
301.207
301.382
301.587
300.858
300.775
300.919
300.841
301.029
300.96
301.19
301.139
301.4
301.364
301.65
301.611
301.9
302.146
302.36
302.524
302.615
302.63
301.806
302.018
302.203
302.344
302.427
302.448
301.019
301.059
301.052
300.996
300.894
301.079
301.12
301.112
301.056
300.951
301.184
301.227
301.219
301.16
301.052
301.336
301.381
301.373
301.312
301.199
301.534
301.582
301.574
301.51
301.391
301.775
301.827
301.819
301.751
301.624
301.017
301.057
301.05
300.994
300.892
301.075
301.116
301.108
301.052
300.947
301.176
301.219
301.211
301.153
301.045
301.319
301.364
301.356
301.296
301.183
301.501
301.549
301.541
301.478
301.36
301.714
301.765
301.758
301.691
301.566
300.958
300.997
300.99
300.935
300.835
300.872
300.91
300.903
300.85
300.753
301.021
301.062
301.054
300.998
300.896
300.94
300.979
300.972
300.918
300.818
301.135
301.177
301.169
301.112
301.005
301.064
301.104
301.097
301.041
300.937
301.302
301.346
301.338
301.278
301.166
301.249
301.292
301.285
301.225
301.115
301.52
301.567
301.56
301.496
301.376
301.482
301.53
301.522
301.459
301.341
301.779
301.831
301.823
301.755
301.627
301.739
301.79
301.783
301.715
301.589
302.039
302.096
302.089
302.017
301.881
302.295
302.357
302.352
302.277
302.133
302.519
302.587
302.585
302.509
302.359
302.694
302.769
302.771
302.695
302.541
302.794
302.876
302.883
302.81
302.656
302.814
302.901
302.913
302.844
302.69
301.941
301.997
301.991
301.921
301.788
302.162
302.223
302.218
302.145
302.006
302.356
302.422
302.419
302.345
302.201
302.505
302.576
302.576
302.503
302.354
302.595
302.67
302.674
302.602
302.451
302.618
302.697
302.703
302.633
302.483
302.831
302.755
302.17
301.899
301.902
301.832
302.071
303.014
302.935
302.849
302.702
302.541
302.644
302.378
302.367
302.238
302.994
302.829
302.551
302.509
302.665
302.604
302.419
302.379
302.148
302.129
302.363
302.346
302.907
302.781
302.922
302.737
302.674
302.828
302.442
302.206
302.506
303.078
303.178
303.198
303.142
303.011
302.958
303.055
303.075
303.012
302.86
302.32
302.382
302.376
302.3
302.155
302.038
302.094
302.087
302.015
301.879
302.041
302.098
302.091
302.019
301.883
301.968
302.023
302.016
301.945
301.811
302.216
302.275
302.269
302.194
302.052
303.242
303.329
303.338
303.27
303.134
303.155
303.235
303.238
303.166
303.023
303.037
303.121
303.128
303.052
302.891
302.903
302.975
302.973
302.898
302.746
302.708
302.78
302.778
302.7
302.544
302.818
302.895
302.896
302.819
302.661
302.537
302.605
302.601
302.524
302.373
302.526
302.595
302.592
302.516
302.365
302.391
302.456
302.452
302.376
302.23
303.223
303.312
303.323
303.256
303.118
303.014
303.098
303.103
303.027
302.865
302.718
302.79
302.787
302.709
302.552
302.673
302.743
302.74
302.662
302.506
302.839
302.915
302.915
302.836
302.677
302.774
302.848
302.847
302.768
302.611
302.58
302.648
302.645
302.567
302.415
302.537
302.604
302.599
302.521
302.37
302.297
302.359
302.353
302.278
302.134
302.276
302.337
302.331
302.256
302.112
302.521
302.588
302.583
302.506
302.355
302.503
302.569
302.564
302.486
302.336
303.146
303.241
303.257
303.197
303.062
302.975
303.067
303.08
303.012
302.855
303.133
303.221
303.234
303.166
303.018
302.919
303.002
303.008
302.934
302.775
302.849
302.927
302.929
302.852
302.693
303.014
303.1
303.108
303.033
302.872
302.603
302.672
302.668
302.59
302.437
302.357
302.419
302.413
302.337
302.191
302.67
302.74
302.737
302.659
302.504
302.399
302.549
302.625
302.626
302.556
302.394
303.174
303.164
303.332
303.338
303.151
303.128
303.319
303.297
302.993
302.801
302.992
302.823
302.972
302.977
302.855
303.189
303.176
303.345
303.354
303.159
303.133
303.328
303.3
302.997
302.802
302.994
302.823
302.972
302.978
302.852
303.195
303.18
303.352
303.364
303.158
303.126
303.329
303.294
302.999
302.762
302.992
302.786
302.965
302.967
302.816
303.148
303.13
303.302
303.318
303.102
303.061
303.274
303.232
302.941
302.686
302.933
302.708
302.901
302.9
302.742
303.048
303.028
303.196
303.213
302.997
302.946
303.166
303.119
302.84
302.597
302.831
302.613
302.798
302.788
302.644
302.862
302.843
303.001
303.018
302.813
302.767
302.97
302.925
302.672
302.459
302.665
302.472
302.634
302.626
302.501
303.569
303.567
303.467
303.471
303.558
303.545
303.457
303.439
303.628
303.662
303.623
303.657
303.616
303.602
303.64
303.585
303.58
303.481
303.488
303.566
303.548
303.466
303.443
303.647
303.669
303.638
303.658
303.623
303.603
303.638
303.594
303.584
303.487
303.498
303.564
303.539
303.466
303.435
303.644
303.632
303.63
303.622
303.607
303.583
303.601
303.542
303.529
303.436
303.45
303.503
303.47
303.409
303.372
303.578
303.537
303.561
303.527
303.53
303.5
303.507
303.429
303.414
303.325
303.341
303.383
303.341
303.296
303.255
303.453
303.398
303.434
303.389
303.399
303.364
303.373
303.221
303.206
303.124
303.139
303.175
303.137
303.094
303.053
303.245
303.212
303.228
303.202
303.197
303.167
303.186
301.811
301.848
301.916
301.976
302.041
302.106
302.184
302.243
302.118
302.185
302.004
302.068
301.909
301.965
301.823
301.864
302.115
302.208
302.225
302.353
302.296
302.412
302.406
302.556
301.731
301.588
301.768
301.63
301.835
301.694
301.897
301.758
302.067
301.951
302.181
302.032
301.82
301.933
302.354
302.557
302.488
302.643
302.531
302.715
302.686
302.829
302.191
302.392
302.316
302.473
302.049
302.241
301.421
301.305
301.486
301.359
301.525
301.377
301.61
301.467
301.673
301.476
301.826
301.629
301.957
301.756
302.124
301.912
302.221
302.268
302.393
302.427
302.466
302.515
302.621
302.669
302.168
302.17
301.985
302.013
302.544
302.562
302.685
302.676
302.762
302.8
302.895
302.912
302.326
302.304
302.474
302.417
301.943
301.711
301.912
301.67
301.764
301.541
301.76
301.519
302.102
301.864
302.042
301.796
302.252
302.008
302.15
301.901
301.169
300.947
301.13
300.92
301.261
301.044
301.187
300.981
301.403
301.225
301.279
301.104
302.001
302.271
301.751
301.568
301.358
302.2
301.915
301.613
301.423
301.214
302.327
302.073
301.829
301.598
301.366
300.746
300.616
300.676
300.565
300.852
300.702
300.75
300.629
301.038
300.865
300.879
300.735
302.088
301.903
301.783
301.563
301.498
301.285
301.284
301.084
301.02
300.84
302.239
302.081
301.956
301.735
301.697
301.463
301.445
301.209
301.138
300.911
302.165
301.924
302.347
302.125
302.452
302.321
302.628
302.518
302.054
301.8
301.883
301.616
302.502
302.28
302.613
302.399
302.772
302.663
302.883
302.783
302.209
301.95
302.316
302.062
301.73
301.459
301.348
301.057
301.59
301.304
301.245
300.957
301.856
301.593
301.441
301.155
301.974
301.705
301.554
301.28
300.518
300.413
300.295
300.518
300.429
300.315
300.584
300.467
300.34
300.571
300.474
300.35
300.716
300.576
300.434
300.651
300.534
300.394
301.681
301.445
301.21
301.32
301.109
300.905
301.063
300.872
300.691
300.891
300.718
300.547
300.721
300.577
300.413
301.861
301.583
301.308
301.431
301.156
300.901
301.158
300.905
300.676
300.944
300.725
300.519
300.738
300.564
300.376
302.616
302.716
302.71
302.844
302.472
302.59
302.575
302.726
302.551
302.682
302.577
302.696
302.629
302.742
302.676
302.778
302.831
302.738
302.905
302.791
302.805
302.883
302.952
303.078
302.849
302.982
302.9
303.032
302.998
303.115
302.936
303.062
302.823
302.949
302.798
302.903
302.87
302.992
302.872
302.972
302.925
303.048
302.99
303.087
303.04
303.11
303.147
303.187
302.82
302.896
302.952
303.032
302.669
302.732
302.812
302.877
303.044
303.139
302.922
303.016
303.076
303.148
303.197
303.249
302.943
303
303.07
303.108
303.157
303.245
303.272
303.338
303.116
303.186
303.198
303.216
303.015
303.104
303.089
303.124
303.212
303.26
303.293
303.295
303.316
303.339
303.376
303.364
302.772
302.665
302.919
302.817
302.795
302.682
302.94
302.834
302.829
302.727
302.973
302.878
302.696
302.51
302.81
302.911
303.012
302.44
302.62
302.711
302.81
302.928
302.569
302.756
302.892
302.98
303.035
302.509
302.309
302.66
302.463
302.537
302.342
302.692
302.503
302.595
302.406
302.753
302.575
302.344
302.175
302.536
302.359
302.638
302.459
302.728
302.547
302.843
302.67
302.5
302.378
302.69
302.565
302.822
302.684
302.902
302.743
302.951
302.772
302.877
302.787
303.014
302.946
302.704
302.619
302.857
302.798
303.106
303.01
302.984
302.869
303.122
303.072
303.221
303.179
302.979
302.935
303.085
303.05
303.207
303.126
303.298
303.224
303.146
303.016
303.132
302.971
303.037
302.889
303.047
302.873
303.237
303.125
303.206
303.06
303.317
303.211
303.276
303.145
302.048
301.798
301.571
302.14
301.855
301.624
302.094
301.839
301.604
302.191
301.901
301.658
302.168
301.913
301.671
302.273
301.965
301.703
301.962
301.717
301.468
302.139
301.882
301.622
302.235
301.965
301.697
302.31
302.035
301.769
302.361
302.033
301.744
302.185
301.903
301.61
302.363
302.071
301.767
302.461
302.151
301.836
302.49
302.167
301.849
302.443
302.093
301.773
302.969
302.82
302.523
302.046
302.911
302.756
302.453
301.98
302.998
302.842
302.541
302.058
302.964
302.796
302.487
302.008
303.035
302.868
302.574
302.102
303.054
302.87
302.559
302.076
303.047
302.846
302.516
302.027
303.091
302.867
302.523
302.03
303.122
302.923
302.611
302.126
303.11
302.896
302.605
302.164
303.061
302.88
302.598
302.149
303.044
302.85
302.581
302.167
303.173
302.955
302.619
302.114
303.169
302.938
302.627
302.172
303.225
302.989
302.639
302.135
303.221
302.974
302.653
302.195
302.956
302.821
302.546
302.092
302.873
302.755
302.517
302.118
302.966
302.825
302.552
302.102
302.879
302.754
302.518
302.123
302.979
302.828
302.562
302.123
302.899
302.761
302.523
302.132
302.985
302.821
302.565
302.149
302.918
302.767
302.53
302.147
302.979
302.803
302.555
302.169
302.75
302.646
302.431
302.129
302.613
302.519
302.3
302.011
302.766
302.654
302.437
302.135
302.63
302.527
302.304
302.014
302.797
302.67
302.446
302.142
302.66
302.541
302.312
302.02
302.842
302.694
302.464
302.156
302.7
302.562
302.324
302.029
302.898
302.726
302.484
302.171
302.747
302.586
302.338
302.038
303.005
302.788
302.517
302.188
302.865
302.656
302.382
302.067
302.952
302.757
302.5
302.178
302.806
302.62
302.359
302.052
303.053
302.818
302.533
302.198
302.92
302.69
302.403
302.083
303.1
302.849
302.555
302.215
302.972
302.723
302.425
302.101
301.404
300.92
300.533
300.238
300.026
301.367
300.893
300.511
300.218
300.008
301.41
300.923
300.535
300.239
300.027
301.377
300.899
300.515
300.222
300.011
301.419
300.927
300.537
300.241
300.028
301.405
300.92
300.532
300.236
300.024
301.393
300.908
300.521
300.226
300.014
301.405
300.916
300.526
300.23
300.017
301.427
300.931
300.54
300.243
300.03
301.397
300.894
300.506
300.212
300.002
301.418
300.921
300.531
300.235
300.023
301.386
300.885
300.498
300.206
299.996
301.43
300.933
300.54
300.243
300.029
301.396
300.892
300.503
300.209
299.998
301.442
300.94
300.546
300.246
300.032
301.401
300.893
300.503
300.208
299.997
301.399
300.908
300.522
300.228
300.017
301.355
300.863
300.482
300.193
299.985
301.401
300.907
300.521
300.227
300.016
301.357
300.863
300.481
300.192
299.984
301.401
300.905
300.517
300.223
300.012
301.357
300.862
300.48
300.19
299.982
301.389
300.889
300.503
300.21
300
301.351
300.855
300.473
300.184
299.976
301.364
300.866
300.482
300.192
299.983
300.334
300.279
300.369
300.313
300.434
300.37
300.521
300.442
300.616
300.518
300.783
300.675
300.702
300.593
300.858
300.756
300.931
300.84
299.883
299.442
299.108
298.872
298.724
299.886
299.443
299.106
298.87
298.72
299.9
299.45
299.113
298.875
298.726
299.901
299.45
299.111
298.871
298.721
299.932
299.467
299.122
298.881
298.73
299.932
299.466
299.119
298.877
298.725
299.977
299.49
299.135
298.889
298.736
299.973
299.487
299.132
298.884
298.73
300.031
299.52
299.153
298.9
298.744
300.019
299.513
299.146
298.894
298.737
300.147
299.592
299.198
298.93
298.766
300.13
299.58
299.188
298.921