/*--------------------------------*- C++ -*----------------------------------*\
| =========                 |                                                 |
| \\      /  F ield         | OpenFOAM: The Open Source CFD Toolbox           |
|  \\    /   O peration     | Version:  2306                                  |
|   \\  /    A nd           | Website:  www.openfoam.com                      |
|    \\/     M anipulation  |                                                 |
\*---------------------------------------------------------------------------*/
FoamFile
{
    version     2.0;
    format      ascii;
    arch        "LSB;label=32;scalar=64";
    class       volScalarField;
    location    "20";
    object      p;
}
// * * * * * * * * * * * * * * * * * * * * * * * * * * * * * * * * * * * * * //

dimensions      [0 2 -2 0 0 0 0];

internalField   nonuniform List<scalar> 
4480
(
0.0107422
0.0107351
0.0107341
0.0107359
0.0107393
0.0107446
0.0107519
0.0107611
0.0107722
0.010785
0.0107993
0.0108149
0.0108313
0.0108482
0.0108649
0.0108809
0.0108956
0.0109082
0.0109177
0.0109235
0.0109248
0.0109213
0.0109125
0.0108986
0.0108798
0.0108564
0.0108292
0.0107988
0.0107661
0.0107318
0.0106968
0.0106617
0.0106271
0.0105934
0.0105611
0.0105304
0.0105017
0.0104749
0.01045
0.0104272
0.0104062
0.010387
0.0103695
0.0103536
0.0103392
0.0103261
0.0103142
0.0103034
0.0102937
0.0102848
0.0102768
0.0102694
0.0102628
0.0102567
0.0102511
0.0102459
0.0102412
0.0102368
0.0102327
0.0102289
0.0102254
0.010222
0.0102189
0.0102159
0.010213
0.0102103
0.0102077
0.0102051
0.0102027
0.0102003
0.0101979
0.0101956
0.0101934
0.0101911
0.0101889
0.0101868
0.0101846
0.0101824
0.0101803
0.0101781
0.0101759
0.0101737
0.0101715
0.0101693
0.0101671
0.0101648
0.0101625
0.0101601
0.0101577
0.0101553
0.0101527
0.0101502
0.0101475
0.0101447
0.0101419
0.0101389
0.0101358
0.0101325
0.010129
0.0101254
0.0101215
0.0101174
0.0101129
0.0101081
0.0101029
0.0100972
0.010091
0.0100841
0.0100767
0.0100686
0.0100606
0.0100538
0.0100503
0.0100525
0.0100853
0.0102869
0.0108578
0.0105509
0.00447986
0.00386263
0.00398359
0.00478499
0.0111136
0.0113246
0.010657
0.0103982
0.0103268
0.0102945
0.0102738
0.0102607
0.010252
0.0102455
0.0102402
0.0102355
0.0102313
0.0102274
0.0102237
0.0102205
0.0102171
0.0102122
0.0107493
0.0107419
0.0107418
0.0107438
0.0107469
0.0107515
0.0107577
0.0107653
0.0107743
0.0107846
0.010796
0.0108084
0.0108213
0.0108344
0.0108473
0.0108594
0.0108703
0.0108794
0.010886
0.0108894
0.010889
0.0108845
0.0108757
0.0108626
0.0108452
0.0108242
0.0107998
0.0107727
0.0107436
0.0107132
0.010682
0.0106507
0.0106197
0.0105894
0.0105601
0.0105322
0.0105058
0.0104809
0.0104577
0.0104361
0.0104161
0.0103976
0.0103805
0.0103648
0.0103503
0.010337
0.0103249
0.0103137
0.0103034
0.0102941
0.0102855
0.0102775
0.0102703
0.0102636
0.0102575
0.0102518
0.0102466
0.0102417
0.0102372
0.0102329
0.010229
0.0102253
0.0102218
0.0102185
0.0102154
0.0102124
0.0102095
0.0102067
0.0102041
0.0102015
0.010199
0.0101965
0.0101941
0.0101918
0.0101894
0.0101871
0.0101848
0.0101825
0.0101803
0.010178
0.0101757
0.0101734
0.010171
0.0101687
0.0101663
0.0101639
0.0101614
0.0101589
0.0101563
0.0101536
0.0101509
0.010148
0.010145
0.0101419
0.0101387
0.0101353
0.0101317
0.0101278
0.0101237
0.0101193
0.0101145
0.0101093
0.0101036
0.0100973
0.0100902
0.0100823
0.0100734
0.0100632
0.0100514
0.0100376
0.0100213
0.0100014
0.00997555
0.00993699
0.00987545
0.00978115
0.00956981
0.00875463
0.00710727
0.00681821
0.00696435
0.0074734
0.00919786
0.00996243
0.0101199
0.0101756
0.0102067
0.0102193
0.0102229
0.0102237
0.0102236
0.0102229
0.0102219
0.0102205
0.010219
0.0102173
0.0102155
0.0102139
0.010212
0.0102073
0.0107503
0.0107417
0.0107414
0.0107433
0.0107463
0.0107507
0.0107565
0.0107638
0.0107724
0.0107823
0.0107933
0.0108051
0.0108175
0.0108302
0.0108425
0.0108541
0.0108647
0.0108735
0.0108799
0.010883
0.0108825
0.010878
0.0108691
0.0108559
0.0108387
0.0108176
0.0107934
0.0107665
0.0107377
0.0107076
0.0106768
0.0106459
0.0106154
0.0105857
0.010557
0.0105296
0.0105037
0.0104794
0.0104567
0.0104356
0.0104159
0.0103977
0.010381
0.0103655
0.0103512
0.0103381
0.010326
0.0103149
0.0103047
0.0102953
0.0102867
0.0102787
0.0102714
0.0102647
0.0102585
0.0102528
0.0102475
0.0102425
0.010238
0.0102337
0.0102297
0.0102259
0.0102224
0.010219
0.0102158
0.0102128
0.0102099
0.0102071
0.0102044
0.0102018
0.0101992
0.0101967
0.0101943
0.0101919
0.0101895
0.0101872
0.0101849
0.0101826
0.0101803
0.010178
0.0101756
0.0101733
0.010171
0.0101686
0.0101662
0.0101637
0.0101612
0.0101586
0.010156
0.0101533
0.0101505
0.0101476
0.0101445
0.0101414
0.0101381
0.0101346
0.0101308
0.0101269
0.0101226
0.0101181
0.0101131
0.0101077
0.0101017
0.0100951
0.0100877
0.0100794
0.0100698
0.0100588
0.0100459
0.0100303
0.0100112
0.00998682
0.00995386
0.00990591
0.00983103
0.00970586
0.00947095
0.00900134
0.00836832
0.00819438
0.00830414
0.00863831
0.00932728
0.00979269
0.0100064
0.0101081
0.0101603
0.0101871
0.0102011
0.0102086
0.0102127
0.0102147
0.0102155
0.0102155
0.0102149
0.0102139
0.0102127
0.0102115
0.0102098
0.0102041
0.010749
0.0107392
0.0107388
0.0107405
0.0107434
0.0107477
0.0107534
0.0107605
0.010769
0.0107788
0.0107897
0.0108015
0.010814
0.0108267
0.0108392
0.0108509
0.0108617
0.0108708
0.0108774
0.0108807
0.0108803
0.0108756
0.0108666
0.0108531
0.0108354
0.0108139
0.0107892
0.0107618
0.0107326
0.0107022
0.0106712
0.0106402
0.0106098
0.0105802
0.0105518
0.0105247
0.0104993
0.0104754
0.0104531
0.0104324
0.0104132
0.0103955
0.010379
0.0103639
0.0103499
0.0103371
0.0103252
0.0103143
0.0103043
0.0102951
0.0102865
0.0102787
0.0102715
0.0102648
0.0102586
0.0102529
0.0102477
0.0102427
0.0102382
0.0102339
0.0102299
0.0102261
0.0102226
0.0102192
0.010216
0.0102129
0.01021
0.0102072
0.0102045
0.0102019
0.0101993
0.0101968
0.0101944
0.010192
0.0101896
0.0101873
0.0101849
0.0101826
0.0101803
0.010178
0.0101757
0.0101733
0.0101709
0.0101686
0.0101661
0.0101637
0.0101611
0.0101586
0.0101559
0.0101532
0.0101504
0.0101474
0.0101444
0.0101412
0.0101379
0.0101343
0.0101306
0.0101266
0.0101223
0.0101177
0.0101127
0.0101073
0.0101013
0.0100946
0.0100871
0.0100787
0.010069
0.0100578
0.0100445
0.0100286
0.0100089
0.0099838
0.00995051
0.0099045
0.00983839
0.00974001
0.00958628
0.00934254
0.00904897
0.0089607
0.00904349
0.00925346
0.00959683
0.00985388
0.0100029
0.0100888
0.0101395
0.0101697
0.0101877
0.0101985
0.0102051
0.0102089
0.0102109
0.0102118
0.0102119
0.0102114
0.0102106
0.0102096
0.010208
0.0102015
0.0107463
0.0107355
0.0107348
0.0107365
0.0107392
0.0107433
0.0107489
0.0107559
0.0107643
0.0107741
0.010785
0.0107969
0.0108095
0.0108224
0.0108351
0.0108471
0.0108582
0.0108677
0.0108746
0.0108782
0.0108778
0.010873
0.0108636
0.0108496
0.0108312
0.010809
0.0107835
0.0107555
0.0107256
0.0106947
0.0106634
0.0106323
0.0106018
0.0105724
0.0105443
0.0105177
0.0104928
0.0104695
0.0104478
0.0104277
0.0104091
0.0103919
0.010376
0.0103613
0.0103478
0.0103353
0.0103238
0.0103132
0.0103034
0.0102944
0.010286
0.0102783
0.0102712
0.0102647
0.0102586
0.0102529
0.0102477
0.0102428
0.0102383
0.010234
0.01023
0.0102263
0.0102227
0.0102193
0.0102161
0.0102131
0.0102102
0.0102074
0.0102046
0.010202
0.0101994
0.0101969
0.0101945
0.0101921
0.0101897
0.0101873
0.010185
0.0101827
0.0101804
0.010178
0.0101757
0.0101733
0.010171
0.0101686
0.0101661
0.0101637
0.0101611
0.0101586
0.0101559
0.0101532
0.0101503
0.0101474
0.0101443
0.0101412
0.0101378
0.0101343
0.0101305
0.0101265
0.0101222
0.0101176
0.0101127
0.0101072
0.0101012
0.0100946
0.0100872
0.0100788
0.0100692
0.0100581
0.0100451
0.0100296
0.0100106
0.00998682
0.00995633
0.00991623
0.00986258
0.00979038
0.00969267
0.00956302
0.00942877
0.00939455
0.00945784
0.00958736
0.00976542
0.00991458
0.0100168
0.0100849
0.0101298
0.0101592
0.0101782
0.0101905
0.0101984
0.0102035
0.0102065
0.0102082
0.0102089
0.0102088
0.0102083
0.0102077
0.0102061
0.010199
0.0107419
0.0107301
0.0107293
0.0107308
0.0107334
0.0107374
0.0107429
0.0107499
0.0107583
0.0107681
0.0107791
0.0107912
0.0108042
0.0108175
0.0108306
0.010843
0.0108546
0.0108647
0.0108721
0.0108759
0.0108755
0.0108705
0.0108606
0.0108458
0.0108265
0.0108032
0.0107766
0.0107475
0.0107168
0.0106851
0.0106533
0.0106219
0.0105914
0.0105621
0.0105344
0.0105083
0.0104839
0.0104613
0.0104403
0.010421
0.0104031
0.0103866
0.0103714
0.0103573
0.0103444
0.0103324
0.0103213
0.0103111
0.0103017
0.010293
0.0102849
0.0102774
0.0102705
0.0102641
0.0102582
0.0102526
0.0102475
0.0102427
0.0102382
0.010234
0.01023
0.0102263
0.0102227
0.0102194
0.0102162
0.0102132
0.0102103
0.0102074
0.0102047
0.0102021
0.0101995
0.010197
0.0101946
0.0101922
0.0101898
0.0101874
0.0101851
0.0101828
0.0101804
0.0101781
0.0101758
0.0101734
0.0101711
0.0101687
0.0101662
0.0101637
0.0101612
0.0101586
0.010156
0.0101533
0.0101504
0.0101475
0.0101445
0.0101413
0.010138
0.0101345
0.0101307
0.0101268
0.0101226
0.010118
0.0101131
0.0101078
0.0101019
0.0100954
0.0100882
0.0100801
0.0100709
0.0100604
0.0100481
0.0100337
0.0100163
0.00999524
0.00996917
0.00993657
0.00989567
0.00984493
0.00978361
0.00971426
0.00965485
0.0096469
0.00969452
0.00977781
0.00987624
0.00996708
0.0100382
0.0100907
0.0101282
0.0101545
0.0101726
0.0101851
0.0101935
0.0101992
0.0102028
0.010205
0.0102062
0.0102065
0.0102063
0.0102059
0.0102045
0.0101971
0.0107358
0.010723
0.010722
0.0107234
0.0107259
0.0107298
0.0107352
0.0107421
0.0107506
0.0107605
0.0107719
0.0107843
0.0107977
0.0108116
0.0108254
0.0108385
0.0108507
0.0108616
0.0108696
0.0108738
0.0108735
0.0108681
0.0108575
0.0108416
0.010821
0.0107963
0.0107682
0.0107377
0.0107057
0.010673
0.0106405
0.0106087
0.010578
0.0105489
0.0105216
0.0104961
0.0104724
0.0104506
0.0104305
0.0104121
0.0103951
0.0103795
0.0103651
0.0103518
0.0103396
0.0103283
0.0103178
0.0103081
0.0102992
0.0102908
0.0102831
0.010276
0.0102693
0.0102631
0.0102573
0.010252
0.0102469
0.0102422
0.0102378
0.0102337
0.0102298
0.0102261
0.0102227
0.0102194
0.0102162
0.0102132
0.0102103
0.0102075
0.0102048
0.0102022
0.0101996
0.0101971
0.0101947
0.0101923
0.0101899
0.0101875
0.0101852
0.0101829
0.0101806
0.0101782
0.0101759
0.0101736
0.0101712
0.0101688
0.0101664
0.0101639
0.0101614
0.0101588
0.0101562
0.0101535
0.0101507
0.0101478
0.0101448
0.0101417
0.0101384
0.0101349
0.0101313
0.0101274
0.0101233
0.0101189
0.0101141
0.010109
0.0101034
0.0100972
0.0100904
0.0100827
0.0100742
0.0100645
0.0100533
0.0100404
0.0100254
0.0100076
0.00998644
0.00996132
0.00993173
0.00989776
0.00986068
0.00982441
0.0097994
0.00980275
0.00983761
0.00989392
0.00995522
0.0100129
0.0100623
0.0101017
0.0101318
0.0101541
0.0101704
0.0101821
0.0101904
0.0101962
0.0102001
0.0102026
0.0102041
0.0102047
0.0102047
0.0102044
0.0102031
0.0101958
0.0107279
0.0107141
0.0107128
0.0107142
0.0107165
0.0107203
0.0107257
0.0107327
0.0107412
0.0107514
0.010763
0.0107759
0.01079
0.0108046
0.0108193
0.0108332
0.0108462
0.0108579
0.0108668
0.0108714
0.0108711
0.0108652
0.0108536
0.0108364
0.010814
0.0107874
0.0107575
0.0107252
0.0106917
0.0106578
0.0106244
0.0105921
0.0105614
0.0105325
0.0105056
0.0104809
0.0104582
0.0104374
0.0104184
0.010401
0.0103851
0.0103706
0.0103572
0.0103449
0.0103335
0.010323
0.0103133
0.0103042
0.0102958
0.010288
0.0102807
0.0102739
0.0102676
0.0102617
0.0102561
0.010251
0.0102461
0.0102416
0.0102373
0.0102333
0.0102295
0.0102259
0.0102225
0.0102192
0.0102161
0.0102131
0.0102103
0.0102075
0.0102048
0.0102022
0.0101997
0.0101972
0.0101948
0.0101924
0.01019
0.0101877
0.0101853
0.010183
0.0101807
0.0101784
0.0101761
0.0101737
0.0101714
0.010169
0.0101666
0.0101642
0.0101617
0.0101592
0.0101565
0.0101539
0.0101511
0.0101483
0.0101453
0.0101423
0.0101391
0.0101357
0.0101322
0.0101284
0.0101245
0.0101202
0.0101157
0.0101108
0.0101055
0.0100997
0.0100934
0.0100864
0.0100787
0.01007
0.0100602
0.0100491
0.0100365
0.0100221
0.0100057
0.00998712
0.00996659
0.00994477
0.00992328
0.00990526
0.00989644
0.0099042
0.00993002
0.0099692
0.0100115
0.0100502
0.0100849
0.0101143
0.0101379
0.0101563
0.0101704
0.0101809
0.0101887
0.0101943
0.0101982
0.0102009
0.0102025
0.0102033
0.0102035
0.0102034
0.0102022
0.0101951
0.0107181
0.0107033
0.0107018
0.010703
0.0107053
0.010709
0.0107143
0.0107213
0.0107299
0.0107403
0.0107523
0.0107657
0.0107805
0.010796
0.0108117
0.0108267
0.0108406
0.0108533
0.0108631
0.0108682
0.0108678
0.0108612
0.0108483
0.0108293
0.0108049
0.010776
0.0107437
0.0107094
0.0106741
0.0106388
0.0106045
0.0105717
0.010541
0.0105124
0.0104863
0.0104625
0.010441
0.0104214
0.0104038
0.0103877
0.0103732
0.0103599
0.0103478
0.0103366
0.0103263
0.0103167
0.0103078
0.0102995
0.0102918
0.0102845
0.0102778
0.0102714
0.0102655
0.0102599
0.0102547
0.0102497
0.0102451
0.0102407
0.0102366
0.0102327
0.010229
0.0102255
0.0102222
0.010219
0.010216
0.010213
0.0102102
0.0102075
0.0102048
0.0102022
0.0101997
0.0101973
0.0101948
0.0101925
0.0101901
0.0101878
0.0101855
0.0101832
0.0101809
0.0101786
0.0101763
0.010174
0.0101717
0.0101693
0.0101669
0.0101645
0.0101621
0.0101596
0.010157
0.0101544
0.0101517
0.0101489
0.0101461
0.0101431
0.01014
0.0101367
0.0101333
0.0101298
0.010126
0.010122
0.0101177
0.0101132
0.0101083
0.010103
0.0100972
0.010091
0.0100841
0.0100765
0.0100682
0.010059
0.0100488
0.0100375
0.0100252
0.010012
0.00999829
0.00998487
0.00997313
0.0099652
0.00996417
0.00997329
0.009993
0.0100207
0.0100514
0.0100796
0.0101046
0.0101265
0.010145
0.01016
0.0101719
0.0101811
0.0101881
0.0101934
0.0101971
0.0101998
0.0102015
0.0102024
0.0102027
0.0102027
0.0102017
0.0101952
0.0107062
0.0106905
0.0106888
0.0106899
0.010692
0.0106956
0.0107008
0.0107077
0.0107164
0.010727
0.0107393
0.0107534
0.0107689
0.0107854
0.0108023
0.0108186
0.0108335
0.0108473
0.0108581
0.0108637
0.0108631
0.0108555
0.010841
0.0108198
0.0107927
0.010761
0.0107261
0.0106893
0.010652
0.0106153
0.0105801
0.010547
0.0105164
0.0104885
0.0104633
0.0104408
0.0104207
0.0104027
0.0103866
0.0103722
0.0103593
0.0103475
0.0103368
0.0103269
0.0103178
0.0103093
0.0103014
0.010294
0.010287
0.0102805
0.0102743
0.0102685
0.010263
0.0102578
0.0102529
0.0102482
0.0102438
0.0102397
0.0102358
0.010232
0.0102285
0.0102251
0.0102218
0.0102187
0.0102157
0.0102129
0.0102101
0.0102074
0.0102048
0.0102023
0.0101998
0.0101973
0.0101949
0.0101926
0.0101903
0.0101879
0.0101857
0.0101834
0.0101811
0.0101788
0.0101766
0.0101743
0.010172
0.0101697
0.0101673
0.0101649
0.0101625
0.0101601
0.0101576
0.010155
0.0101524
0.0101497
0.0101469
0.0101441
0.0101411
0.010138
0.0101348
0.0101314
0.0101279
0.0101241
0.0101202
0.010116
0.0101115
0.0101067
0.0101016
0.0100961
0.0100902
0.0100838
0.0100769
0.0100694
0.0100614
0.0100529
0.010044
0.010035
0.0100262
0.0100185
0.0100128
0.0100104
0.0100131
0.0100222
0.0100377
0.010058
0.0100805
0.0101021
0.0101211
0.0101378
0.0101523
0.0101644
0.0101743
0.0101823
0.0101885
0.0101932
0.0101967
0.0101993
0.010201
0.0102019
0.0102023
0.0102024
0.0102016
0.0101958
0.0106922
0.0106757
0.0106738
0.0106747
0.0106766
0.01068
0.0106851
0.0106919
0.0107006
0.0107112
0.0107239
0.0107385
0.0107548
0.0107724
0.0107906
0.0108082
0.0108243
0.0108393
0.0108512
0.0108573
0.0108563
0.0108476
0.0108309
0.0108069
0.0107767
0.0107418
0.0107037
0.0106643
0.0106248
0.0105866
0.0105506
0.0105173
0.0104872
0.0104603
0.0104365
0.0104156
0.0103973
0.0103812
0.0103671
0.0103546
0.0103435
0.0103335
0.0103244
0.010316
0.0103083
0.010301
0.0102942
0.0102878
0.0102817
0.0102759
0.0102704
0.0102651
0.0102601
0.0102554
0.0102508
0.0102465
0.0102424
0.0102385
0.0102348
0.0102312
0.0102278
0.0102245
0.0102214
0.0102184
0.0102155
0.0102127
0.01021
0.0102073
0.0102048
0.0102023
0.0101998
0.0101974
0.010195
0.0101927
0.0101904
0.0101881
0.0101859
0.0101836
0.0101814
0.0101791
0.0101769
0.0101746
0.0101723
0.0101701
0.0101678
0.0101654
0.0101631
0.0101607
0.0101583
0.0101558
0.0101532
0.0101506
0.010148
0.0101452
0.0101424
0.0101395
0.0101364
0.0101333
0.01013
0.0101265
0.0101229
0.0101191
0.0101151
0.0101109
0.0101064
0.0101017
0.0100967
0.0100914
0.0100858
0.01008
0.0100739
0.0100677
0.0100615
0.0100557
0.0100505
0.0100465
0.0100445
0.0100452
0.0100495
0.0100581
0.0100706
0.010086
0.0101029
0.0101194
0.0101346
0.0101478
0.0101593
0.0101691
0.0101773
0.010184
0.0101894
0.0101937
0.0101969
0.0101993
0.0102009
0.0102019
0.0102024
0.0102025
0.0102019
0.0101971
0.010676
0.0106588
0.0106567
0.0106574
0.0106591
0.0106622
0.010667
0.0106736
0.0106821
0.0106928
0.0107056
0.0107206
0.0107377
0.0107564
0.010776
0.0107952
0.0108127
0.0108289
0.0108419
0.0108485
0.010847
0.0108367
0.0108174
0.01079
0.0107561
0.0107173
0.0106757
0.0106333
0.0105916
0.010552
0.0105154
0.0104823
0.010453
0.0104275
0.0104056
0.0103867
0.0103707
0.0103569
0.0103451
0.0103348
0.0103259
0.0103179
0.0103106
0.010304
0.0102977
0.0102919
0.0102863
0.0102809
0.0102758
0.0102708
0.010266
0.0102614
0.010257
0.0102527
0.0102486
0.0102446
0.0102408
0.0102371
0.0102336
0.0102303
0.010227
0.0102239
0.0102209
0.010218
0.0102152
0.0102124
0.0102098
0.0102072
0.0102047
0.0102022
0.0101998
0.0101975
0.0101951
0.0101928
0.0101906
0.0101883
0.0101861
0.0101838
0.0101816
0.0101794
0.0101772
0.010175
0.0101728
0.0101705
0.0101683
0.010166
0.0101637
0.0101614
0.010159
0.0101566
0.0101542
0.0101517
0.0101491
0.0101465
0.0101438
0.0101411
0.0101383
0.0101353
0.0101323
0.0101292
0.0101259
0.0101225
0.010119
0.0101153
0.0101115
0.0101075
0.0101034
0.0100991
0.0100947
0.0100903
0.0100859
0.0100815
0.0100775
0.010074
0.0100713
0.0100698
0.01007
0.0100724
0.0100774
0.0100851
0.0100954
0.0101075
0.0101206
0.0101334
0.0101455
0.0101563
0.0101657
0.0101737
0.0101805
0.0101862
0.0101909
0.0101946
0.0101976
0.0101997
0.0102013
0.0102023
0.0102028
0.0102031
0.0102026
0.0101988
0.0106574
0.0106397
0.0106374
0.010638
0.0106393
0.010642
0.0106464
0.0106526
0.0106609
0.0106713
0.0106842
0.0106995
0.0107173
0.0107371
0.0107581
0.0107791
0.0107982
0.0108156
0.0108298
0.0108369
0.0108346
0.0108221
0.0107996
0.0107682
0.0107297
0.0106866
0.0106411
0.0105955
0.0105516
0.0105108
0.010474
0.0104415
0.0104137
0.0103902
0.0103706
0.0103543
0.0103409
0.0103299
0.0103208
0.0103131
0.0103066
0.0103009
0.0102957
0.0102909
0.0102864
0.010282
0.0102778
0.0102736
0.0102695
0.0102654
0.0102614
0.0102574
0.0102536
0.0102498
0.0102461
0.0102425
0.010239
0.0102357
0.0102324
0.0102292
0.0102262
0.0102232
0.0102203
0.0102175
0.0102148
0.0102122
0.0102096
0.0102071
0.0102046
0.0102022
0.0101999
0.0101975
0.0101952
0.010193
0.0101907
0.0101885
0.0101863
0.0101841
0.0101819
0.0101797
0.0101776
0.0101754
0.0101732
0.010171
0.0101688
0.0101666
0.0101644
0.0101621
0.0101598
0.0101575
0.0101552
0.0101528
0.0101504
0.0101479
0.0101454
0.0101429
0.0101402
0.0101375
0.0101348
0.010132
0.0101291
0.0101261
0.010123
0.0101199
0.0101167
0.0101134
0.0101101
0.0101067
0.0101034
0.0101002
0.0100971
0.0100943
0.0100919
0.0100901
0.0100891
0.0100893
0.0100908
0.010094
0.0100991
0.0101061
0.0101147
0.0101245
0.0101348
0.0101451
0.0101547
0.0101636
0.0101714
0.0101781
0.0101839
0.0101887
0.0101927
0.010196
0.0101986
0.0102006
0.010202
0.010203
0.0102036
0.0102039
0.0102036
0.0102009
0.0106364
0.0106186
0.0106162
0.0106164
0.0106173
0.0106195
0.0106234
0.010629
0.0106367
0.0106467
0.0106593
0.0106748
0.0106931
0.0107139
0.0107365
0.0107592
0.0107802
0.010799
0.0108145
0.0108218
0.0108183
0.0108032
0.0107767
0.0107404
0.0106968
0.0106487
0.010599
0.0105502
0.0105042
0.0104626
0.010426
0.0103949
0.0103691
0.0103482
0.0103315
0.0103185
0.0103083
0.0103005
0.0102945
0.0102897
0.0102859
0.0102827
0.0102798
0.0102771
0.0102744
0.0102716
0.0102688
0.0102658
0.0102628
0.0102597
0.0102565
0.0102532
0.01025
0.0102467
0.0102435
0.0102403
0.0102372
0.0102341
0.0102311
0.0102281
0.0102253
0.0102224
0.0102197
0.010217
0.0102144
0.0102119
0.0102094
0.0102069
0.0102045
0.0102022
0.0101999
0.0101976
0.0101953
0.0101931
0.0101909
0.0101887
0.0101865
0.0101844
0.0101822
0.0101801
0.010178
0.0101758
0.0101737
0.0101716
0.0101694
0.0101673
0.0101651
0.0101629
0.0101607
0.0101585
0.0101563
0.010154
0.0101517
0.0101494
0.0101471
0.0101447
0.0101423
0.0101399
0.0101374
0.0101349
0.0101323
0.0101297
0.0101271
0.0101245
0.0101219
0.0101192
0.0101166
0.0101141
0.0101117
0.0101095
0.0101075
0.0101059
0.0101047
0.0101041
0.0101044
0.0101056
0.0101079
0.0101115
0.0101164
0.0101227
0.01013
0.0101381
0.0101465
0.0101548
0.0101627
0.0101699
0.0101764
0.0101821
0.0101871
0.0101912
0.0101947
0.0101976
0.0101999
0.0102017
0.0102031
0.0102041
0.0102047
0.0102051
0.010205
0.0102033
0.010613
0.0105955
0.0105929
0.0105928
0.0105932
0.0105947
0.0105978
0.0106025
0.0106094
0.0106187
0.0106308
0.0106462
0.0106648
0.0106866
0.0107107
0.0107354
0.0107583
0.0107788
0.0107954
0.0108029
0.0107979
0.0107793
0.010748
0.0107059
0.0106564
0.0106028
0.0105486
0.0104966
0.0104489
0.0104069
0.0103713
0.0103422
0.0103193
0.0103018
0.0102887
0.0102794
0.010273
0.0102689
0.0102664
0.0102649
0.0102641
0.0102636
0.0102631
0.0102626
0.0102618
0.0102608
0.0102594
0.0102578
0.0102559
0.0102537
0.0102514
0.0102489
0.0102463
0.0102436
0.0102408
0.010238
0.0102352
0.0102325
0.0102297
0.010227
0.0102243
0.0102217
0.0102191
0.0102165
0.010214
0.0102116
0.0102091
0.0102068
0.0102044
0.0102021
0.0101999
0.0101976
0.0101954
0.0101932
0.0101911
0.0101889
0.0101868
0.0101847
0.0101826
0.0101805
0.0101784
0.0101763
0.0101742
0.0101721
0.01017
0.0101679
0.0101658
0.0101637
0.0101616
0.0101595
0.0101574
0.0101553
0.0101531
0.010151
0.0101488
0.0101466
0.0101444
0.0101422
0.01014
0.0101378
0.0101356
0.0101334
0.0101312
0.010129
0.0101269
0.0101249
0.0101229
0.0101211
0.0101195
0.0101181
0.010117
0.0101163
0.010116
0.0101164
0.0101174
0.0101193
0.0101221
0.0101258
0.0101305
0.010136
0.0101424
0.0101491
0.0101561
0.010163
0.0101695
0.0101756
0.0101811
0.0101859
0.0101901
0.0101937
0.0101968
0.0101993
0.0102014
0.0102031
0.0102044
0.0102054
0.010206
0.0102065
0.0102066
0.0102059
0.0105874
0.0105705
0.0105678
0.0105672
0.010567
0.0105677
0.0105698
0.0105734
0.0105791
0.0105874
0.0105987
0.0106135
0.0106323
0.0106549
0.0106805
0.0107072
0.0107323
0.0107547
0.0107725
0.01078
0.0107729
0.0107501
0.0107128
0.010664
0.0106077
0.0105481
0.0104893
0.0104343
0.0103854
0.0103438
0.01031
0.0102839
0.0102647
0.0102513
0.0102426
0.0102377
0.0102356
0.0102356
0.0102369
0.010239
0.0102415
0.0102439
0.010246
0.0102478
0.010249
0.0102497
0.0102499
0.0102496
0.0102488
0.0102477
0.0102462
0.0102444
0.0102425
0.0102403
0.010238
0.0102357
0.0102332
0.0102308
0.0102283
0.0102258
0.0102233
0.0102208
0.0102184
0.010216
0.0102136
0.0102112
0.0102089
0.0102066
0.0102043
0.0102021
0.0101999
0.0101977
0.0101955
0.0101934
0.0101912
0.0101891
0.010187
0.010185
0.0101829
0.0101808
0.0101788
0.0101767
0.0101747
0.0101727
0.0101706
0.0101686
0.0101666
0.0101646
0.0101626
0.0101606
0.0101585
0.0101565
0.0101545
0.0101525
0.0101505
0.0101485
0.0101466
0.0101446
0.0101426
0.0101407
0.0101388
0.010137
0.0101352
0.0101335
0.0101318
0.0101303
0.0101289
0.0101277
0.0101267
0.010126
0.0101256
0.0101256
0.0101261
0.0101271
0.0101286
0.0101309
0.0101339
0.0101376
0.010142
0.010147
0.0101525
0.0101583
0.0101642
0.01017
0.0101755
0.0101806
0.0101853
0.0101894
0.0101931
0.0101962
0.0101989
0.0102012
0.0102031
0.0102047
0.0102059
0.0102069
0.0102076
0.0102081
0.0102084
0.0102087
0.0105595
0.0105439
0.0105411
0.01054
0.0105391
0.0105388
0.0105395
0.0105418
0.010546
0.0105528
0.0105629
0.0105769
0.0105954
0.0106186
0.0106457
0.0106746
0.0107021
0.0107265
0.0107457
0.0107529
0.010743
0.0107149
0.0106706
0.0106139
0.01055
0.0104841
0.0104207
0.0103633
0.0103139
0.0102736
0.0102427
0.0102204
0.0102059
0.0101975
0.0101938
0.0101939
0.0101966
0.0102012
0.0102067
0.0102126
0.0102184
0.0102239
0.0102287
0.0102328
0.0102361
0.0102386
0.0102403
0.0102413
0.0102417
0.0102416
0.010241
0.01024
0.0102386
0.010237
0.0102352
0.0102333
0.0102312
0.010229
0.0102268
0.0102245
0.0102223
0.01022
0.0102177
0.0102154
0.0102131
0.0102108
0.0102086
0.0102064
0.0102042
0.010202
0.0101998
0.0101977
0.0101956
0.0101935
0.0101914
0.0101893
0.0101873
0.0101852
0.0101832
0.0101812
0.0101792
0.0101772
0.0101752
0.0101732
0.0101713
0.0101693
0.0101674
0.0101654
0.0101635
0.0101616
0.0101597
0.0101578
0.0101559
0.0101541
0.0101523
0.0101505
0.0101487
0.0101469
0.0101452
0.0101436
0.010142
0.0101405
0.010139
0.0101377
0.0101365
0.0101354
0.0101345
0.0101338
0.0101334
0.0101332
0.0101334
0.0101339
0.0101349
0.0101363
0.0101383
0.0101408
0.0101438
0.0101475
0.0101516
0.0101561
0.010161
0.0101661
0.0101711
0.0101761
0.0101808
0.0101852
0.0101892
0.0101927
0.0101959
0.0101987
0.0102011
0.0102031
0.0102049
0.0102063
0.0102075
0.0102085
0.0102092
0.0102098
0.0102103
0.0102115
0.0105298
0.010516
0.0105131
0.0105115
0.0105097
0.0105082
0.0105075
0.010508
0.0105103
0.0105152
0.0105236
0.0105363
0.0105542
0.0105778
0.0106062
0.0106374
0.0106677
0.0106943
0.010715
0.0107217
0.0107083
0.0106738
0.010621
0.0105553
0.0104831
0.0104106
0.0103429
0.0102836
0.0102347
0.010197
0.0101701
0.010153
0.0101439
0.0101412
0.0101432
0.0101488
0.0101569
0.0101662
0.0101762
0.0101861
0.0101955
0.010204
0.0102115
0.010218
0.0102233
0.0102276
0.0102309
0.0102332
0.0102347
0.0102356
0.0102358
0.0102355
0.0102348
0.0102338
0.0102324
0.0102309
0.0102292
0.0102273
0.0102253
0.0102233
0.0102212
0.0102191
0.0102169
0.0102148
0.0102126
0.0102105
0.0102083
0.0102062
0.010204
0.0102019
0.0101998
0.0101977
0.0101957
0.0101936
0.0101916
0.0101895
0.0101875
0.0101855
0.0101835
0.0101816
0.0101796
0.0101777
0.0101757
0.0101738
0.0101719
0.01017
0.0101682
0.0101663
0.0101645
0.0101626
0.0101609
0.0101591
0.0101573
0.0101556
0.010154
0.0101523
0.0101508
0.0101492
0.0101478
0.0101464
0.0101451
0.0101438
0.0101427
0.0101417
0.0101409
0.0101402
0.0101398
0.0101395
0.0101395
0.0101398
0.0101404
0.0101413
0.0101426
0.0101444
0.0101466
0.0101492
0.0101523
0.0101558
0.0101596
0.0101638
0.0101682
0.0101726
0.010177
0.0101813
0.0101854
0.0101892
0.0101927
0.0101958
0.0101986
0.0102011
0.0102032
0.0102051
0.0102067
0.0102081
0.0102092
0.0102102
0.010211
0.0102116
0.0102123
0.0102143
0.0104985
0.0104872
0.0104844
0.0104821
0.0104793
0.0104765
0.010474
0.0104724
0.0104725
0.010475
0.0104812
0.0104921
0.010509
0.0105325
0.0105623
0.0105959
0.0106292
0.0106584
0.0106808
0.0106867
0.0106689
0.0106267
0.010564
0.010488
0.0104068
0.0103277
0.0102563
0.0101962
0.010149
0.0101151
0.0100935
0.0100827
0.0100801
0.0100837
0.010092
0.0101036
0.0101172
0.0101317
0.0101462
0.0101601
0.010173
0.0101846
0.0101948
0.0102036
0.010211
0.0102169
0.0102217
0.0102253
0.0102279
0.0102297
0.0102308
0.0102312
0.0102311
0.0102306
0.0102297
0.0102285
0.0102271
0.0102256
0.0102239
0.0102221
0.0102202
0.0102182
0.0102162
0.0102142
0.0102121
0.0102101
0.010208
0.0102059
0.0102039
0.0102018
0.0101998
0.0101977
0.0101957
0.0101937
0.0101917
0.0101897
0.0101877
0.0101858
0.0101838
0.0101819
0.01018
0.0101781
0.0101762
0.0101744
0.0101725
0.0101707
0.0101689
0.0101671
0.0101654
0.0101637
0.010162
0.0101603
0.0101587
0.0101572
0.0101556
0.0101542
0.0101528
0.0101514
0.0101502
0.010149
0.010148
0.010147
0.0101462
0.0101455
0.010145
0.0101447
0.0101446
0.0101447
0.010145
0.0101457
0.0101466
0.0101479
0.0101495
0.0101514
0.0101538
0.0101565
0.0101595
0.0101629
0.0101665
0.0101703
0.0101742
0.0101782
0.0101821
0.0101859
0.0101895
0.0101928
0.0101959
0.0101987
0.0102012
0.0102034
0.0102054
0.0102071
0.0102085
0.0102098
0.010211
0.010212
0.0102128
0.0102135
0.0102143
0.0102171
0.0104662
0.010458
0.0104552
0.0104523
0.0104485
0.0104442
0.0104397
0.0104357
0.0104331
0.0104328
0.0104363
0.0104448
0.0104599
0.0104831
0.010514
0.0105504
0.0105872
0.0106194
0.0106437
0.0106488
0.0106256
0.010574
0.0104997
0.0104122
0.0103215
0.010236
0.0101617
0.0101021
0.0100582
0.0100296
0.0100147
0.010011
0.0100157
0.0100263
0.0100414
0.0100593
0.0100786
0.0100982
0.0101172
0.0101351
0.0101515
0.0101661
0.010179
0.0101899
0.0101992
0.0102068
0.0102129
0.0102178
0.0102214
0.0102241
0.0102259
0.010227
0.0102275
0.0102275
0.010227
0.0102262
0.0102252
0.0102239
0.0102224
0.0102208
0.0102191
0.0102173
0.0102155
0.0102136
0.0102116
0.0102097
0.0102077
0.0102057
0.0102037
0.0102017
0.0101997
0.0101977
0.0101958
0.0101938
0.0101918
0.0101899
0.010188
0.010186
0.0101841
0.0101823
0.0101804
0.0101785
0.0101767
0.0101749
0.0101731
0.0101714
0.0101696
0.010168
0.0101663
0.0101647
0.0101631
0.0101615
0.01016
0.0101586
0.0101572
0.0101559
0.0101547
0.0101535
0.0101525
0.0101515
0.0101507
0.01015
0.0101494
0.010149
0.0101488
0.0101488
0.0101489
0.0101494
0.01015
0.0101509
0.0101521
0.0101536
0.0101554
0.0101576
0.01016
0.0101627
0.0101657
0.0101689
0.0101723
0.0101758
0.0101794
0.010183
0.0101865
0.0101899
0.0101931
0.0101961
0.0101989
0.0102014
0.0102036
0.0102056
0.0102074
0.010209
0.0102104
0.0102116
0.0102127
0.0102137
0.0102146
0.0102154
0.0102163
0.0102198
0.0104334
0.0104289
0.0104263
0.0104228
0.0104179
0.0104119
0.0104053
0.0103987
0.0103929
0.0103893
0.0103893
0.0103948
0.0104077
0.01043
0.0104619
0.0105011
0.0105421
0.0105779
0.0106049
0.0106089
0.0105793
0.0105164
0.0104285
0.0103282
0.0102276
0.0101364
0.0100606
0.0100031
0.00996426
0.0099426
0.00993575
0.00993994
0.00995225
0.00997045
0.00999264
0.010017
0.0100421
0.0100667
0.0100901
0.0101118
0.0101315
0.0101489
0.0101641
0.0101772
0.0101882
0.0101973
0.0102048
0.0102107
0.0102153
0.0102188
0.0102214
0.0102231
0.0102241
0.0102245
0.0102245
0.010224
0.0102233
0.0102223
0.010221
0.0102196
0.0102181
0.0102165
0.0102148
0.010213
0.0102111
0.0102093
0.0102074
0.0102055
0.0102035
0.0102016
0.0101997
0.0101977
0.0101958
0.0101939
0.010192
0.0101901
0.0101882
0.0101863
0.0101844
0.0101826
0.0101808
0.010179
0.0101772
0.0101754
0.0101737
0.010172
0.0101704
0.0101687
0.0101671
0.0101656
0.0101641
0.0101627
0.0101613
0.01016
0.0101587
0.0101576
0.0101565
0.0101555
0.0101546
0.0101539
0.0101533
0.0101528
0.0101524
0.0101523
0.0101523
0.0101525
0.0101529
0.0101536
0.0101545
0.0101556
0.010157
0.0101587
0.0101607
0.0101629
0.0101654
0.0101681
0.010171
0.0101741
0.0101773
0.0101806
0.0101839
0.0101872
0.0101904
0.0101935
0.0101964
0.0101991
0.0102015
0.0102038
0.0102059
0.0102077
0.0102093
0.0102108