/*--------------------------------*- C++ -*----------------------------------*\
| =========                 |                                                 |
| \\      /  F ield         | OpenFOAM: The Open Source CFD Toolbox           |
|  \\    /   O peration     | Version:  2306                                  |
|   \\  /    A nd           | Website:  www.openfoam.com                      |
|    \\/     M anipulation  |                                                 |
\*---------------------------------------------------------------------------*/
FoamFile
{
    version     2.0;
    format      ascii;
    arch        "LSB;label=32;scalar=64";
    class       surfaceScalarField;
    location    "20";
    object      phi;
}
// * * * * * * * * * * * * * * * * * * * * * * * * * * * * * * * * * * * * * //

dimensions      [0 3 -1 0 0 0 0];

oriented        oriented;

internalField   nonuniform List<scalar> 
8788
(
-3.45072e-07
3.45072e-07
-7.96912e-07
4.5184e-07
-1.29601e-06
4.99096e-07
-1.81444e-06
5.18431e-07
-2.32359e-06
5.09148e-07
-2.79504e-06
4.71454e-07
-3.20181e-06
4.06772e-07
-3.5181e-06
3.16288e-07
-3.71893e-06
2.00833e-07
-3.7802e-06
6.12652e-08
-3.67867e-06
-1.01531e-07
-3.39286e-06
-2.85806e-07
-2.90375e-06
-4.8911e-07
-2.19615e-06
-7.07602e-07
-1.26007e-06
-9.36075e-07
-9.20107e-08
-1.16806e-06
1.30395e-06
-1.39596e-06
2.91151e-06
-1.60756e-06
4.70313e-06
-1.79161e-06
6.64182e-06
-1.93869e-06
8.68277e-06
-2.04095e-06
1.07757e-05
-2.09297e-06
1.2868e-05
-2.09229e-06
1.49076e-05
-2.03958e-06
1.68461e-05
-1.93845e-06
1.8641e-05
-1.79494e-06
2.02579e-05
-1.61687e-06
2.1671e-05
-1.41312e-06
2.28639e-05
-1.19289e-06
2.3829e-05
-9.65103e-07
2.45669e-05
-7.37874e-07
2.50851e-05
-5.18215e-07
2.53969e-05
-3.11812e-07
2.55198e-05
-1.22901e-07
2.54739e-05
4.58915e-08
2.52808e-05
1.93137e-07
2.49624e-05
3.18353e-07
2.45406e-05
4.21783e-07
2.40364e-05
5.04246e-07
2.34693e-05
5.67038e-07
2.28575e-05
6.11815e-07
2.22171e-05
6.40472e-07
2.1562e-05
6.55029e-07
2.09045e-05
6.57541e-07
2.02545e-05
6.50014e-07
1.96201e-05
6.34351e-07
1.90078e-05
6.12304e-07
1.84224e-05
5.8545e-07
1.78672e-05
5.55175e-07
1.73445e-05
5.2267e-07
1.68556e-05
4.88937e-07
1.64008e-05
4.54798e-07
1.59799e-05
4.20914e-07
1.55921e-05
3.87799e-07
1.52362e-05
3.55838e-07
1.49109e-05
3.2531e-07
1.46145e-05
2.96402e-07
1.43453e-05
2.69224e-07
1.41015e-05
2.43829e-07
1.38812e-05
2.2022e-07
1.36829e-05
1.98364e-07
1.35047e-05
1.78201e-07
1.3345e-05
1.59651e-07
1.32024e-05
1.42621e-07
1.30754e-05
1.27008e-07
1.29627e-05
1.12705e-07
1.28631e-05
9.96042e-08
1.27755e-05
8.75961e-08
1.26989e-05
7.65741e-08
1.26325e-05
6.64343e-08
1.25754e-05
5.70761e-08
1.2527e-05
4.84026e-08
1.24867e-05
4.03204e-08
1.2454e-05
3.274e-08
1.24284e-05
2.5575e-08
1.24096e-05
1.8742e-08
1.23975e-05
1.21601e-08
1.23917e-05
5.75176e-09
1.23923e-05
-5.57972e-10
1.23991e-05
-6.84435e-09
1.24123e-05
-1.31874e-08
1.2432e-05
-1.96658e-08
1.24583e-05
-2.63647e-08
1.24917e-05
-3.33749e-08
1.25325e-05
-4.0794e-08
1.25812e-05
-4.87287e-08
1.26385e-05
-5.72962e-08
1.27052e-05
-6.66269e-08
1.2782e-05
-7.68677e-08
1.28702e-05
-8.81855e-08
1.2971e-05
-1.00772e-07
1.30858e-05
-1.14847e-07
1.32165e-05
-1.30672e-07
1.33651e-05
-1.48548e-07
1.35339e-05
-1.68836e-07
1.37259e-05
-1.91967e-07
1.39443e-05
-2.18457e-07
1.41932e-05
-2.48932e-07
1.44774e-05
-2.84158e-07
1.48025e-05
-3.25074e-07
1.51753e-05
-3.72842e-07
1.56042e-05
-4.28915e-07
1.60994e-05
-4.95113e-07
1.66731e-05
-5.73738e-07
1.73408e-05
-6.67709e-07
1.81215e-05
-7.80742e-07
1.90391e-05
-9.17561e-07
2.01233e-05
-1.08416e-06
2.14113e-05
-1.28807e-06
2.295e-05
-1.53867e-06
2.47982e-05
-1.84818e-06
2.70367e-05
-2.23849e-06
2.98038e-05
-2.76714e-06
3.33798e-05
-3.57602e-06
3.83184e-05
-4.93861e-06
4.60961e-05
-7.7777e-06
6.40377e-05
-1.79416e-05
0.000126443
-6.24051e-05
6.61106e-05
-0.000161941
1.06501e-05
-0.000213873
-4.68847e-05
-0.000218034
-0.000111415
-0.000168295
-4.68081e-05
-6.46065e-05
-2.81566e-05
-1.86516e-05
-2.03003e-05
-7.85627e-06
-1.55466e-05
-4.75371e-06
-1.22561e-05
-3.29048e-06
-9.79419e-06
-2.46191e-06
-7.84477e-06
-1.94942e-06
-6.25832e-06
-1.58645e-06
-4.95366e-06
-1.30466e-06
-3.87525e-06
-1.07841e-06
-2.98099e-06
-8.94254e-07
-2.23877e-06
-7.42225e-07
-1.62441e-06
-6.14353e-07
-1.12019e-06
-5.04225e-07
-7.13261e-07
-4.06929e-07
-3.93665e-07
-3.19596e-07
-1.53119e-07
-2.40546e-07
-1.53119e-07
-4.55527e-07
8.00599e-07
-9.85416e-07
9.81729e-07
-1.57524e-06
1.08892e-06
-2.18491e-06
1.1281e-06
-2.77979e-06
1.10403e-06
-3.32747e-06
1.01913e-06
-3.7964e-06
8.75709e-07
-4.15587e-06
6.75752e-07
-4.37599e-06
4.20961e-07
-4.42787e-06
1.13139e-07
-4.28406e-06
-2.4534e-07
-3.91904e-06
-6.50825e-07
-3.3106e-06
-1.09755e-06
-2.44112e-06
-1.57708e-06
-1.29918e-06
-2.07801e-06
1.19165e-07
-2.58641e-06
1.80764e-06
-3.08444e-06
3.74544e-06
-3.54535e-06
5.90002e-06
-3.9462e-06
8.2275e-06
-4.26617e-06
1.06748e-05
-4.48826e-06
1.31827e-05
-4.60087e-06
1.56893e-05
-4.59882e-06
1.81334e-05
-4.4837e-06
2.04583e-05
-4.26338e-06
2.26143e-05
-3.95095e-06
2.45608e-05
-3.56332e-06
2.62673e-05
-3.11962e-06
2.77141e-05
-2.63968e-06
2.88917e-05
-2.14271e-06
2.98001e-05
-1.64628e-06
3.04474e-05
-1.16554e-06
3.08484e-05
-7.12827e-07
3.10229e-05
-2.97439e-07
3.09943e-05
7.45044e-08
3.07877e-05
3.99756e-07
3.0429e-05
6.77104e-07
2.99438e-05
9.06907e-07
2.93572e-05
1.09084e-06
2.86926e-05
1.23164e-06
2.79716e-05
1.33283e-06
2.72136e-05
1.3985e-06
2.64356e-05
1.43301e-06
2.56524e-05
1.44081e-06
2.48761e-05
1.42629e-06
2.41168e-05
1.39361e-06
2.33825e-05
1.34663e-06
2.26791e-05
1.2888e-06
2.20111e-05
1.22321e-06
2.13813e-05
1.15248e-06
2.07914e-05
1.07886e-06
2.0242e-05
1.00417e-06
1.9733e-05
9.29888e-07
1.92636e-05
8.57178e-07
1.88326e-05
7.86909e-07
1.84382e-05
7.19714e-07
1.80786e-05
6.56021e-07
1.77517e-05
5.9609e-07
1.74555e-05
5.40048e-07
1.71878e-05
4.87913e-07
1.69465e-05
4.39622e-07
1.67297e-05
3.95049e-07
1.65353e-05
3.54022e-07
1.63616e-05
3.16341e-07
1.62068e-05
2.81782e-07
1.60694e-05
2.50112e-07
1.59479e-05
2.21094e-07
1.5841e-05
1.94488e-07
1.57475e-05
1.70061e-07
1.56664e-05
1.47584e-07
1.55966e-05
1.26834e-07
1.55374e-05
1.07599e-07
1.54881e-05
8.96718e-08
1.5448e-05
7.28556e-08
1.54166e-05
5.69596e-08
1.53935e-05
4.17994e-08
1.53785e-05
2.71966e-08
1.53713e-05
1.29783e-08
1.53717e-05
-1.02302e-09
1.53798e-05
-1.4974e-08
1.53957e-05
-2.90465e-08
1.54195e-05
-4.34187e-08
1.54514e-05
-5.82789e-08
1.54918e-05
-7.38278e-08
1.55413e-05
-9.02814e-08
1.56005e-05
-1.07875e-07
1.567e-05
-1.26867e-07
1.5751e-05
-1.47546e-07
1.58443e-05
-1.70236e-07
1.59514e-05
-1.95304e-07
1.60738e-05
-2.23173e-07
1.62133e-05
-2.5433e-07
1.6372e-05
-2.89344e-07
1.65523e-05
-3.28883e-07
1.67572e-05
-3.73738e-07
1.69901e-05
-4.24856e-07
1.7255e-05
-4.83371e-07
1.75568e-05
-5.50658e-07
1.7901e-05
-6.28395e-07
1.82946e-05
-7.18645e-07
1.87457e-05
-8.23967e-07
1.92643e-05
-9.47557e-07
1.98627e-05
-1.09344e-06
2.05557e-05
-1.26676e-06
2.13621e-05
-1.47411e-06
2.23054e-05
-1.72409e-06
2.3416e-05
-2.0281e-06
2.47334e-05
-2.40159e-06
2.63116e-05
-2.86626e-06
2.82272e-05
-3.45426e-06
3.05962e-05
-4.2172e-06
3.36055e-05
-5.24781e-06
3.75691e-05
-6.73073e-06
4.30388e-05
-9.0457e-06
5.10827e-05
-1.29825e-05
6.37518e-05
-2.04468e-05
8.25306e-05
-3.67204e-05
9.30313e-05
-7.29058e-05
6.01821e-05
-0.000129091
1.10911e-05
-0.000164782
-3.92975e-05
-0.000167645
-7.38122e-05
-0.000133781
-6.26878e-05
-7.57308e-05
-4.3325e-05
-3.80145e-05
-3.03464e-05
-2.08348e-05
-2.22254e-05
-1.28747e-05
-1.68286e-05
-8.68732e-06
-1.30215e-05
-6.269e-06
-1.02076e-05
-4.76333e-06
-8.04584e-06
-3.74819e-06
-6.33492e-06
-3.01557e-06
-4.95256e-06
-2.46078e-06
-3.82089e-06
-2.02592e-06
-2.8878e-06
-1.67532e-06
-2.1171e-06
-1.38505e-06
-1.48309e-06
-1.13824e-06
-9.67102e-07
-9.22916e-07
-5.55741e-07
-7.30956e-07
-2.40422e-07
-5.55865e-07
-3.93541e-07
-5.22826e-07
1.32343e-06
-1.13722e-06
1.59613e-06
-1.80716e-06
1.75886e-06
-2.49468e-06
1.81561e-06
-3.16249e-06
1.77184e-06
-3.77464e-06
1.63128e-06
-4.29597e-06
1.39704e-06
-4.69198e-06
1.07176e-06
-4.92889e-06
6.57869e-07
-4.97389e-06
1.58138e-07
-4.79568e-06
-4.2355e-07
-4.36524e-06
-1.08126e-06
-3.65718e-06
-1.80562e-06
-2.65128e-06
-2.58297e-06
-1.33436e-06
-3.39493e-06
2.97841e-07
-4.21861e-06
2.2382e-06
-5.0248e-06
4.46298e-06
-5.77013e-06
6.93463e-06
-6.41785e-06
9.60267e-06
-6.93422e-06
1.24062e-05
-7.29181e-06
1.52774e-05
-7.47208e-06
1.81456e-05
-7.46703e-06
2.09415e-05
-7.27956e-06
2.36008e-05
-6.92268e-06
2.60675e-05
-6.41772e-06
2.82962e-05
-5.792e-06
3.02529e-05
-5.07628e-06
3.19155e-05
-4.30231e-06
3.32736e-05
-3.50081e-06
3.43271e-05
-2.69977e-06
3.5085e-05
-1.9234e-06
3.55635e-05
-1.19139e-06
3.57847e-05
-5.18653e-07
3.57745e-05
8.47137e-08
3.55611e-05
6.13203e-07
3.51734e-05
1.06474e-06
3.46406e-05
1.43973e-06
3.39907e-05
1.74075e-06
3.32503e-05
1.97209e-06
3.24437e-05
2.13934e-06
3.15933e-05
2.24899e-06
3.07183e-05
2.308e-06
2.98355e-05
2.32355e-06
2.89592e-05
2.30265e-06
2.81007e-05
2.25204e-06
2.72694e-05
2.17793e-06
2.64723e-05
2.08596e-06
2.57144e-05
1.98111e-06
2.49992e-05
1.86767e-06
2.43288e-05
1.74929e-06
2.3704e-05
1.62896e-06
2.31247e-05
1.50913e-06
2.25902e-05
1.39168e-06
2.20991e-05
1.27805e-06
2.16495e-05
1.16931e-06
2.12394e-05
1.06615e-06
2.08664e-05
9.69034e-07
2.05283e-05
8.78166e-07
2.02226e-05
7.93594e-07
1.9947e-05
7.15223e-07
1.96992e-05
6.42859e-07
1.9477e-05
5.76231e-07
1.92783e-05
5.15017e-07
1.91012e-05
4.5886e-07
1.8944e-05
4.07385e-07
1.88049e-05
3.60208e-07
1.86824e-05
3.16945e-07
1.85752e-05
2.77216e-07
1.84822e-05
2.40652e-07
1.84021e-05
2.06892e-07
1.83341e-05
1.75593e-07
1.82774e-05
1.4642e-07
1.82312e-05
1.19053e-07
1.8195e-05
9.31833e-08
1.81682e-05
6.85124e-08
1.81507e-05
4.47506e-08
1.81421e-05
2.16166e-08
1.81422e-05
-1.16302e-09
1.81511e-05
-2.38581e-08
1.81688e-05
-4.67452e-08
1.81955e-05
-7.01142e-08
1.82315e-05
-9.42702e-08
1.82772e-05
-1.19538e-07
1.83332e-05
-1.46265e-07
1.84001e-05
-1.74833e-07
1.84789e-05
-2.05657e-07
1.85706e-05
-2.39201e-07
1.86763e-05
-2.75986e-07
1.87976e-05
-3.16603e-07
1.89362e-05
-3.61726e-07
1.9094e-05
-4.12138e-07
1.92734e-05
-4.68746e-07
1.94771e-05
-5.32617e-07
1.97084e-05
-6.05012e-07
1.9971e-05
-6.87434e-07
2.02693e-05
-7.81684e-07
2.06086e-05
-8.89945e-07
2.0995e-05
-1.01487e-06
2.14361e-05
-1.15973e-06
2.19407e-05
-1.32856e-06
2.25196e-05
-1.52643e-06
2.31859e-05
-1.75972e-06
2.39557e-05
-2.03663e-06
2.48494e-05
-2.36776e-06
2.58924e-05
-2.76712e-06
2.71179e-05
-3.25362e-06
2.85698e-05
-3.85349e-06
3.03081e-05
-4.60456e-06
3.24177e-05
-5.56385e-06
3.50225e-05
-6.82201e-06
3.83062e-05
-8.53154e-06
4.25363e-05
-1.09607e-05
4.80811e-05
-1.45905e-05
5.53838e-05
-2.02853e-05
6.45781e-05
-2.96411e-05
7.34135e-05
-4.55558e-05
7.21963e-05
-7.16886e-05
4.8736e-05
-0.000105631
1.21276e-05
-0.000128173
-2.53465e-05
-0.000130171
-4.9979e-05
-0.000109148
-5.12937e-05
-7.44162e-05
-4.2135e-05
-4.71731e-05
-3.25968e-05
-3.0373e-05
-2.50591e-05
-2.04124e-05
-1.94016e-05
-1.43447e-05
-1.51592e-05
-1.05114e-05
-1.19331e-05
-7.98944e-06
-9.42904e-06
-6.25225e-06
-7.44383e-06
-5.00078e-06
-5.84133e-06
-4.06328e-06
-4.53017e-06
-3.33708e-06
-3.44794e-06
-2.75754e-06
-2.55109e-06
-2.2819e-06
-1.8086e-06
-1.88073e-06
-1.19788e-06
-1.53363e-06
-7.02147e-07
-1.22669e-06
-3.07605e-07
-9.50407e-07
-7.01146e-07
-5.83143e-07
1.90657e-06
-1.26749e-06
2.28047e-06
-2.00975e-06
2.50112e-06
-2.76867e-06
2.57453e-06
-3.50425e-06
2.50743e-06
-4.1776e-06
2.30463e-06
-4.75051e-06
1.96995e-06
-5.18529e-06
1.50654e-06
-5.44475e-06
9.17325e-07
-5.4925e-06
2.05894e-07
-5.29358e-06
-6.22474e-07
-4.8153e-06
-1.55954e-06
-4.02872e-06
-2.5922e-06
-2.91044e-06
-3.70125e-06
-1.44484e-06
-4.86054e-06
3.73559e-07
-6.03701e-06
2.5381e-06
-7.18935e-06
5.02252e-06
-8.25455e-06
7.78444e-06
-9.17977e-06
1.07665e-05
-9.91627e-06
1.38993e-05
-1.04246e-05
1.71058e-05
-1.06786e-05
2.0306e-05
-1.06672e-05
2.34219e-05
-1.03955e-05
2.6382e-05
-9.88277e-06
2.91245e-05
-9.16024e-06
3.15997e-05
-8.26725e-06
3.37712e-05
-7.24777e-06
3.56158e-05
-6.14692e-06
3.71231e-05
-5.00806e-06
3.82939e-05
-3.87055e-06
3.91388e-05
-2.76829e-06
3.96762e-05
-1.72882e-06
3.99305e-05
-7.72997e-07
3.99303e-05
8.49103e-08
3.97065e-05
8.36991e-07
3.92911e-05
1.48021e-06
3.87157e-05
2.01509e-06
3.80113e-05
2.44517e-06
3.72069e-05
2.77646e-06
3.63295e-05
3.01681e-06
3.54031e-05
3.17533e-06
3.44493e-05
3.26187e-06
3.34863e-05
3.2865e-06
3.25298e-05
3.2592e-06
3.15923e-05
3.18945e-06
3.06842e-05
3.08609e-06
2.9813e-05
2.95712e-06
2.89845e-05
2.8096e-06
2.82025e-05
2.64967e-06
2.74693e-05
2.48251e-06
2.67859e-05
2.31242e-06
2.61521e-05
2.14285e-06
2.55673e-05
1.97655e-06
2.50298e-05
1.81557e-06
2.45376e-05
1.66142e-06
2.40887e-05
1.51514e-06
2.36803e-05
1.37736e-06
2.33101e-05
1.24842e-06
2.29753e-05
1.12838e-06
2.26734e-05
1.01712e-06
2.24019e-05
9.14364e-07
2.21584e-05
8.19739e-07
2.19406e-05
7.32788e-07
2.17465e-05
6.53009e-07
2.1574e-05
5.79873e-07
2.14213e-05
5.12835e-07
2.12869e-05
4.51351e-07
2.11693e-05
3.94885e-07
2.1067e-05
3.42912e-07
2.0979e-05
2.94923e-07
2.09041e-05
2.50429e-07
2.08416e-05
2.08958e-07
2.07906e-05
1.70057e-07
2.07505e-05
1.33287e-07
2.07208e-05
9.82263e-08
2.07011e-05
6.44649e-08
2.06911e-05
3.16032e-08
2.06907e-05
-7.4807e-10
2.06998e-05
-3.29706e-08
2.07185e-05
-6.54545e-08
2.0747e-05
-9.86095e-08
2.07856e-05
-1.32866e-07
2.08347e-05
-1.68681e-07
2.0895e-05
-2.06545e-07
2.09672e-05
-2.4699e-07
2.10521e-05
-2.90599e-07
2.11509e-05
-3.38021e-07
2.12649e-05
-3.89982e-07
2.13956e-05
-4.47304e-07
2.15448e-05
-5.10926e-07
2.17146e-05
-5.81929e-07
2.19074e-05
-6.61572e-07
2.21261e-05
-7.51324e-07
2.23741e-05
-8.52921e-07
2.2655e-05
-9.68425e-07
2.29737e-05
-1.1003e-06
2.33352e-05
-1.25153e-06
2.37461e-05
-1.42571e-06
2.42137e-05
-1.6273e-06
2.47468e-05
-1.86175e-06
2.53563e-05
-2.13592e-06
2.6055e-05
-2.45843e-06
2.68587e-05
-2.84031e-06
2.77868e-05
-3.29589e-06
2.88638e-05
-3.84406e-06
3.01205e-05
-4.5103e-06
3.15968e-05
-5.32985e-06
3.33451e-05
-6.35288e-06
3.54344e-05
-7.65309e-06
3.79547e-05
-9.34233e-06
4.10183e-05
-1.15951e-05
4.4746e-05
-1.46884e-05
4.92162e-05
-1.90608e-05
5.43195e-05
-2.53886e-05
5.93469e-05
-3.46684e-05
6.19831e-05
-4.8192e-05
5.70936e-05
-6.67991e-05
3.93238e-05
-8.78613e-05
1.30784e-05
-0.000101928
-1.37791e-05
-0.000103314
-3.24545e-05
-9.04729e-05
-3.76684e-05
-6.92023e-05
-3.49515e-05
-4.989e-05
-2.96876e-05
-3.5637e-05
-2.43374e-05
-2.57626e-05
-1.96733e-05
-1.90088e-05
-1.58227e-05
-1.43621e-05
-1.2702e-05
-1.11101e-05
-1.01765e-05
-8.77773e-06
-8.11944e-06
-7.05786e-06
-6.42888e-06
-5.75384e-06
-5.02782e-06
-4.73814e-06
-3.85933e-06
-3.92604e-06
-2.88152e-06
-3.25971e-06
-2.06345e-06
-2.6988e-06
-1.38212e-06
-2.21497e-06
-8.20086e-07
-1.78872e-06
-3.63335e-07
-1.40716e-06
-1.06448e-06
-6.38786e-07
2.54535e-06
-1.38723e-06
3.02892e-06
-2.198e-06
3.31189e-06
-3.02647e-06
3.403e-06
-3.8299e-06
3.31086e-06
-4.56679e-06
3.04152e-06
-5.19625e-06
2.59941e-06
-5.67763e-06
1.98792e-06
-5.97049e-06
1.21019e-06
-6.03489e-06
2.70289e-07
-5.83195e-06
-8.25411e-07
-5.32486e-06
-2.06663e-06
-4.48044e-06
-3.43662e-06
-3.27124e-06
-4.91044e-06
-1.67817e-06
-6.45362e-06
3.06478e-07
-8.02166e-06
2.67769e-06
-9.56056e-06
5.40722e-06
-1.09841e-05
8.44769e-06
-1.22202e-05
1.17338e-05
-1.32024e-05
1.51864e-05
-1.38772e-05
1.87174e-05
-1.42096e-05
2.22364e-05
-1.41861e-05
2.56557e-05
-1.38148e-05
2.8896e-05
-1.31231e-05
3.18898e-05
-1.2154e-05
3.45838e-05
-1.09613e-05
3.694e-05
-9.60395e-06
3.89352e-05
-8.14219e-06
4.05604e-05
-6.63324e-06
4.18186e-05
-5.12872e-06
4.27231e-05
-3.67277e-06
4.32952e-05
-2.30101e-06
4.35626e-05
-1.04033e-06
4.35566e-05
9.09062e-08
4.33111e-05
1.08253e-06
4.28607e-05
1.93061e-06
4.22398e-05
2.63591e-06
4.14818e-05
3.20318e-06
4.06179e-05
3.64036e-06
3.96769e-05
3.95781e-06
3.86847e-05
4.16754e-06
3.76641e-05
4.2825e-06
3.66346e-05
4.31595e-06
3.56128e-05
4.28098e-06
3.46122e-05
4.19009e-06
3.36434e-05
4.05489e-06
3.27146e-05
3.8859e-06
3.18318e-05
3.69244e-06
3.09989e-05
3.48257e-06
3.02183e-05
3.26312e-06
2.94909e-05
3.03975e-06
2.88168e-05
2.81703e-06
2.81948e-05
2.59854e-06
2.76233e-05
2.38703e-06
2.71002e-05
2.18447e-06
2.66231e-05
1.99225e-06
2.61893e-05
1.81119e-06
2.5796e-05
1.64174e-06
2.54404e-05
1.48398e-06
2.51197e-05
1.33776e-06
2.48314e-05
1.20272e-06
2.45727e-05
1.07837e-06
2.43414e-05
9.64096e-07
2.41352e-05
8.59253e-07
2.39519e-05
7.63138e-07
2.37897e-05
6.75039e-07
2.36468e-05
5.94239e-07
2.35217e-05
5.20033e-07
2.34129e-05
4.51734e-07
2.33191e-05
3.88674e-07
2.32393e-05
3.3021e-07
2.31726e-05
2.75724e-07
2.3118e-05
2.24621e-07
2.3075e-05
1.76329e-07
2.30429e-05
1.30294e-07
2.30214e-05
8.59797e-08
2.30101e-05
4.28627e-08
2.30089e-05
4.31371e-10
2.30178e-05
-4.18139e-08
2.30367e-05
-8.43816e-08
2.30659e-05
-1.27806e-07
2.31057e-05
-1.72648e-07
2.31565e-05
-2.19498e-07
2.3219e-05
-2.68992e-07
2.32938e-05
-3.21816e-07
2.33819e-05
-3.78724e-07
2.34844e-05
-4.40547e-07
2.36027e-05
-5.08216e-07
2.37381e-05
-5.82783e-07
2.38927e-05
-6.65445e-07
2.40683e-05
-7.57577e-07
2.42675e-05
-8.60772e-07
2.44931e-05
-9.76888e-07
2.47483e-05
-1.10811e-06
2.50369e-05
-1.25702e-06
2.53632e-05
-1.42669e-06
2.57326e-05
-1.62084e-06
2.61508e-05
-1.84393e-06
2.66249e-05
-2.10143e-06
2.71632e-05
-2.40006e-06
2.77755e-05
-2.74817e-06
2.84733e-05
-3.15624e-06
2.92706e-05
-3.63758e-06
3.0184e-05
-4.20935e-06
3.12339e-05
-4.89396e-06
3.24449e-05
-5.72125e-06
3.38467e-05
-6.7317e-06
3.54752e-05
-7.98131e-06
3.73712e-05
-9.54909e-06
3.95772e-05
-1.15483e-05
4.21249e-05
-1.41429e-05
4.50054e-05
-1.75689e-05
4.81027e-05
-2.21581e-05
5.10638e-05
-2.83497e-05
5.30551e-05
-3.66597e-05
5.23865e-05
-4.75234e-05
4.63405e-05
-6.07531e-05
3.27023e-05
-7.4223e-05
1.38755e-05
-8.3101e-05
-5.38641e-06
-8.40518e-05
-1.96937e-05
-7.61656e-05
-2.61117e-05
-6.27843e-05
-2.68478e-05
-4.9154e-05
-2.47396e-05
-3.77451e-05
-2.15839e-05
-2.89183e-05
-1.82839e-05
-2.23088e-05
-1.523e-05
-1.7416e-05
-1.2552e-05
-1.37881e-05
-1.02595e-05
-1.10703e-05
-8.31488e-06
-9.0025e-06
-6.66848e-06
-7.40024e-06
-5.27299e-06
-6.13363e-06
-4.08813e-06
-5.11089e-06
-3.08138e-06
-4.26646e-06
-2.22712e-06
-3.55306e-06
-1.50551e-06
-2.93658e-06
-9.01307e-07
-2.39292e-06
-4.02576e-07
-1.90589e-06
-1.46706e-06
-6.91985e-07
3.23734e-06
-1.50318e-06
3.84012e-06
-2.38241e-06
4.19112e-06
-3.28216e-06
4.30274e-06
-4.15727e-06
4.18597e-06
-4.96391e-06
3.84817e-06
-5.65869e-06
3.29418e-06
-6.19811e-06
2.52734e-06
-6.53842e-06
1.5505e-06
-6.63581e-06
3.67674e-07
-6.44704e-06
-1.01418e-06
-5.93042e-06
-2.58324e-06
-5.0476e-06
-4.31944e-06
-3.76597e-06
-6.19207e-06
-2.06177e-06
-8.15782e-06
7.64525e-08
-1.01599e-05
2.64546e-06
-1.21296e-05
5.61647e-06
-1.39551e-05
8.93628e-06
-1.554e-05
1.25301e-05
-1.67962e-05
1.63066e-05
-1.76537e-05
2.0165e-05
-1.8068e-05
2.40019e-05
-1.8023e-05
2.77186e-05
-1.75316e-05
3.12273e-05
-1.66317e-05
3.44546e-05
-1.53813e-05
3.73443e-05
-1.38509e-05
3.98577e-05
-1.21173e-05
4.19731e-05
-1.02576e-05
4.36842e-05
-8.34429e-06
4.49975e-05
-6.4421e-06
4.59306e-05
-4.60585e-06
4.65089e-05
-2.87932e-06
4.67638e-05
-1.29522e-06
4.67303e-05
1.24374e-07
4.64455e-05
1.36739e-06
4.59468e-05
2.42929e-06
4.52713e-05
3.31138e-06
4.44546e-05
4.01994e-06
4.35297e-05
4.56521e-06
4.25271e-05
4.96039e-06
4.1474e-05
5.2207e-06
4.0394e-05
5.36245e-06
3.93076e-05
5.40236e-06
3.82317e-05
5.35686e-06
3.71802e-05
5.24161e-06
3.6164e-05
5.07116e-06
3.51912e-05
4.85866e-06
3.42679e-05
4.61577e-06
3.33979e-05
4.35256e-06
3.25835e-05
4.07754e-06
3.18254e-05
3.79779e-06
3.11234e-05
3.519e-06
3.04764e-05
3.24563e-06
2.98823e-05
2.98108e-06
2.93389e-05
2.72783e-06
2.88436e-05
2.48757e-06
2.83935e-05
2.26133e-06
2.79856e-05
2.04965e-06
2.76169e-05
1.85263e-06
2.72846e-05
1.67006e-06
2.69859e-05
1.50148e-06
2.6718e-05
1.34627e-06
2.64784e-05
1.20367e-06
2.62648e-05
1.07285e-06
2.6075e-05
9.52947e-07
2.5907e-05
8.43055e-07
2.57589e-05
7.42282e-07
2.56292e-05
6.49745e-07
2.55164e-05
5.64585e-07
2.54191e-05
4.8597e-07
2.53362e-05
4.13097e-07
2.52667e-05
3.45197e-07
2.52098e-05
2.8153e-07
2.51648e-05
2.21384e-07
2.5131e-05
1.64071e-07
2.5108e-05
1.08925e-07
2.50956e-05
5.5296e-08
2.50935e-05
2.54888e-09
2.51016e-05
-4.99383e-08
2.512e-05
-1.02795e-07
2.51489e-05
-1.56681e-07
2.51885e-05
-2.12284e-07
2.52394e-05
-2.70332e-07
2.5302e-05
-3.316e-07
2.53771e-05
-3.96926e-07
2.54656e-05
-4.67227e-07
2.55686e-05
-5.43513e-07
2.56873e-05
-6.2691e-07
2.58232e-05
-7.18685e-07
2.5978e-05
-8.20276e-07
2.61537e-05
-9.33331e-07
2.63527e-05
-1.05975e-06
2.65776e-05
-1.20173e-06
2.68313e-05
-1.36187e-06
2.71175e-05
-1.54319e-06
2.74401e-05
-1.74931e-06
2.78038e-05
-1.98453e-06
2.82139e-05
-2.25404e-06
2.86766e-05
-2.56411e-06
2.9199e-05
-2.92242e-06
2.97892e-05
-3.33842e-06
3.04568e-05
-3.82388e-06
3.12128e-05
-4.39358e-06
3.20698e-05
-5.06632e-06
3.30421e-05
-5.86627e-06
3.41458e-05
-6.82493e-06
3.5398e-05
-7.98387e-06
3.68152e-05
-9.39858e-06
3.84099e-05
-1.11437e-05
4.01817e-05
-1.33202e-05
4.21018e-05
-1.6063e-05
4.40819e-05
-1.95489e-05
4.59213e-05
-2.39975e-05
4.72241e-05
-2.96525e-05
4.72861e-05
-3.67217e-05
4.49923e-05
-4.52296e-05
3.8934e-05
-5.46947e-05
2.83106e-05
-6.35997e-05
1.45458e-05
-6.93362e-05
4.73514e-07
-6.99795e-05
-1.06327e-05
-6.50593e-05
-1.70386e-05
-5.63783e-05
-1.94714e-05
-4.67212e-05
-1.93805e-05
-3.7836e-05
-1.79459e-05
-3.03529e-05
-1.59289e-05
-2.43258e-05
-1.37654e-05
-1.95795e-05
-1.16792e-05
-1.58742e-05
-9.7689e-06
-1.29806e-05
-8.06567e-06
-1.07057e-05
-6.56807e-06
-8.89784e-06
-5.26081e-06
-7.44089e-06
-4.1244e-06
-6.2473e-06
-3.13965e-06
-5.25121e-06
-2.28962e-06
-4.40309e-06
-1.56028e-06
-3.66591e-06
-9.40653e-07
-3.01255e-06
-4.22391e-07
-2.42415e-06
-1.88945e-06
-7.45075e-07
3.98241e-06
-1.61959e-06
4.71463e-06
-2.56912e-06
5.14064e-06
-3.54373e-06
5.27735e-06
-4.49622e-06
5.13846e-06
-5.38066e-06
4.73261e-06
-6.15131e-06
4.06483e-06
-6.76181e-06
3.13783e-06
-7.16485e-06
1.95355e-06
-7.31233e-06
5.15158e-07
-7.15597e-06
-1.17055e-06
-6.64831e-06
-3.0909e-06
-5.74467e-06
-5.22309e-06
-4.40596e-06
-7.53078e-06
-2.60237e-06
-9.96141e-06
-3.17497e-07
-1.24448e-05
2.4472e-06
-1.48943e-05
5.66488e-06
-1.71728e-05
9.2746e-06
-1.91498e-05
1.31898e-05
-2.07114e-05
1.73045e-05
-2.17685e-05
2.1502e-05
-2.22654e-05
2.56636e-05
-2.21847e-05
2.96781e-05
-2.1546e-05
3.34479e-05
-2.04015e-05
3.68938e-05
-1.88273e-05
3.99574e-05
-1.69145e-05
4.26006e-05
-1.47605e-05
4.48046e-05
-1.24617e-05
4.65676e-05
-1.01072e-05
4.79014e-05
-7.77592e-06
4.8829e-05
-5.53342e-06
4.93812e-05
-3.43154e-06
4.95943e-05
-1.50834e-06
4.95076e-05
2.11086e-07
4.91616e-05
1.71337e-06
4.85971e-05
2.99379e-06
4.78538e-05
4.05474e-06
4.69692e-05
4.90451e-06
4.59783e-05
5.55612e-06
4.49126e-05
6.02604e-06
4.38003e-05
6.33307e-06
4.26655e-05
6.49724e-06
4.15289e-05
6.53894e-06
4.04076e-05
6.47816e-06
3.93153e-05
6.33389e-06
3.82628e-05
6.12373e-06
3.72579e-05
5.86355e-06
3.63063e-05
5.56736e-06
3.54116e-05
5.24727e-06
3.45756e-05
4.91352e-06
3.37988e-05
4.57456e-06
3.30806e-05
4.23718e-06
3.24195e-05
3.90672e-06
3.18134e-05
3.58721e-06
3.12597e-05
3.28159e-06
3.07554e-05
2.99184e-06
3.02975e-05
2.71919e-06
2.9883e-05
2.46421e-06
2.95086e-05
2.22701e-06
2.91713e-05
2.00731e-06
2.88683e-05
1.80453e-06
2.85966e-05
1.6179e-06
2.83538e-05
1.4465e-06
2.81374e-05
1.28931e-06
2.7945e-05
1.14527e-06
2.77748e-05
1.0133e-06
2.76248e-05
8.92306e-07
2.74933e-05
7.81232e-07
2.73788e-05
6.79038e-07
2.72801e-05
5.84721e-07
2.71958e-05
4.97319e-07
2.71251e-05
4.15908e-07
2.70671e-05
3.39599e-07
2.70209e-05
2.67541e-07
2.69861e-05
1.98911e-07
2.69621e-05
1.32914e-07
2.69486e-05
6.87729e-08
2.69454e-05
5.72913e-09
2.69524e-05
-5.69614e-08
2.69697e-05
-1.20049e-07
2.69973e-05
-1.84315e-07
2.70356e-05
-2.50571e-07
2.7085e-05
-3.19675e-07
2.71459e-05
-3.92536e-07
2.72191e-05
-4.70137e-07
2.73054e-05
-5.53545e-07
2.74059e-05
-6.43935e-07
2.75216e-05
-7.42611e-07
2.76539e-05
-8.51036e-07
2.78045e-05
-9.70863e-07
2.79751e-05
-1.10397e-06
2.81679e-05
-1.25254e-06
2.83852e-05
-1.41904e-06
2.86298e-05
-1.60641e-06
2.89046e-05
-1.81804e-06
2.92133e-05
-2.05795e-06
2.95596e-05
-2.33091e-06
2.99482e-05
-2.6426e-06
3.0384e-05
-2.99987e-06
3.08725e-05
-3.41098e-06
3.14201e-05
-3.88605e-06
3.20337e-05
-4.43746e-06
3.27207e-05
-5.0806e-06
3.34891e-05
-5.83467e-06
3.43467e-05
-6.72385e-06
3.53006e-05
-7.77886e-06
3.63556e-05
-9.03892e-06
3.75114e-05
-1.05543e-05
3.8757e-05
-1.23893e-05
4.00623e-05
-1.46255e-05
4.1363e-05
-1.73636e-05
4.25366e-05
-2.07225e-05
4.33684e-05
-2.48294e-05
4.3509e-05
-2.97931e-05
4.24351e-05
-3.56479e-05
3.94547e-05
-4.22492e-05
3.38636e-05
-4.91036e-05
2.54404e-05
-5.51766e-05
1.50954e-05
-5.89911e-05
4.55809e-06
-5.94422e-05
-4.20133e-06
-5.62999e-05
-1.00935e-05
-5.04861e-05
-1.32369e-05
-4.35778e-05
-1.43354e-05
-3.67376e-05
-1.41156e-05
-3.05726e-05
-1.31411e-05
-2.53003e-05
-1.17959e-05
-2.09246e-05
-1.03193e-05
-1.73509e-05
-8.84863e-06
-1.44513e-05
-7.45612e-06
-1.20982e-05
-6.17494e-06
-1.0179e-05
-5.01636e-06
-8.59947e-06
-3.98027e-06
-7.28339e-06
-3.06131e-06
-6.17018e-06
-2.25231e-06
-5.21209e-06
-1.54634e-06
-4.37189e-06
-9.37749e-07
-3.62113e-06
-4.22689e-07
-2.93921e-06
-2.31214e-06
-7.98983e-07
4.7814e-06
-1.73784e-06
5.65349e-06
-2.75974e-06
6.16254e-06
-3.81291e-06
6.33052e-06
-4.84849e-06
6.17404e-06
-5.81875e-06
5.70288e-06
-6.67573e-06
4.92181e-06
-7.37013e-06
3.83223e-06
-7.85082e-06
2.43424e-06
-8.06489e-06
7.29223e-07
-7.95818e-06
-1.27726e-06
-7.4765e-06
-3.57258e-06
-6.56753e-06
-6.13205e-06
-5.18428e-06
-8.91402e-06
-3.28944e-06
-1.18563e-05
-8.60658e-07
-1.48735e-05
2.10331e-06
-1.78582e-05
5.57912e-06
-2.06486e-05
9.49612e-06
-2.30668e-05
1.37533e-05
-2.49685e-05
1.82266e-05
-2.62418e-05
2.27799e-05
-2.68188e-05
2.72769e-05
-2.66817e-05
3.15914e-05
-2.58605e-05
3.56154e-05
-2.44256e-05
3.92644e-05
-2.24762e-05
4.24784e-05
-2.01285e-05
4.52216e-05
-1.75038e-05
4.74801e-05
-1.47202e-05
4.92582e-05
-1.18853e-05
5.05748e-05
-9.09257e-06
5.146e-05
-6.41862e-06
5.19513e-05
-3.92285e-06
5.20909e-05
-1.64787e-06
5.19227e-05
3.79215e-07
5.14916e-05
2.14449e-06
5.08417e-05
3.64376e-06
5.00152e-05
4.88117e-06
4.9052e-05
5.86772e-06
4.79883e-05
6.61981e-06
4.68567e-05
7.15772e-06
4.56855e-05
7.50427e-06
4.44991e-05
7.68359e-06
4.3318e-05
7.72001e-06
4.21589e-05
7.63728e-06
4.10349e-05
7.45786e-06
3.99562e-05
7.20243e-06
3.89302e-05
6.88963e-06
3.79617e-05
6.53585e-06
3.70537e-05
6.15521e-06
3.62077e-05
5.75959e-06
3.54234e-05
5.3588e-06
3.46999e-05
4.96068e-06
3.40353e-05
4.57138e-06
3.3427e-05
4.19552e-06
3.28721e-05
3.83643e-06
3.23676e-05
3.49636e-06
3.19102e-05
3.17664e-06
3.14964e-05
2.87792e-06
3.11232e-05
2.60023e-06
3.07873e-05
2.3432e-06
3.04857e-05
2.10612e-06
3.02156e-05
1.88804e-06
2.99742e-05
1.68786e-06
2.97592e-05
1.50436e-06
2.95682e-05
1.33629e-06
2.93991e-05
1.18236e-06
2.92501e-05
1.0413e-06
2.91195e-05
9.11838e-07
2.90058e-05
7.92774e-07
2.89076e-05
6.82929e-07
2.88237e-05
5.81177e-07
2.87532e-05
4.86438e-07
2.86951e-05
3.97678e-07
2.86487e-05
3.13907e-07
2.86135e-05
2.34169e-07
2.85888e-05
1.57541e-07
2.85745e-05
8.31236e-08
2.85702e-05
1.00375e-08
2.85758e-05
-6.25809e-08
2.85914e-05
-1.356e-07
2.8617e-05
-2.09914e-07
2.86528e-05
-2.86456e-07
2.86994e-05
-3.662e-07
2.8757e-05
-4.50183e-07
2.88264e-05
-5.39517e-07
2.89083e-05
-6.35406e-07
2.90035e-05
-7.3917e-07
2.91131e-05
-8.5227e-07
2.92384e-05
-9.76335e-07
2.93808e-05
-1.1132e-06
2.95418e-05
-1.26494e-06
2.97232e-05
-1.43394e-06
2.9927e-05
-1.62292e-06
3.01557e-05
-1.83505e-06
3.04116e-05
-2.07398e-06
3.06977e-05
-2.34402e-06
3.1017e-05
-2.65023e-06
3.1373e-05
-2.99859e-06
3.17693e-05
-3.39622e-06
3.221e-05
-3.85166e-06
3.26991e-05
-4.37516e-06
3.32408e-05
-4.97916e-06
3.3839e-05
-5.67881e-06
3.4497e-05
-6.49263e-06
3.52165e-05
-7.44341e-06
3.59969e-05
-8.55922e-06
3.68327e-05
-9.87466e-06
3.77105e-05
-1.14321e-05
3.86042e-05
-1.3283e-05
3.94668e-05
-1.54881e-05
4.02191e-05
-1.81159e-05
4.07342e-05
-2.12376e-05
4.08189e-05
-2.49141e-05
4.0197e-05
-2.91711e-05
3.85061e-05
-3.3957e-05
3.53352e-05
-3.90782e-05
3.03499e-05
-4.41183e-05
2.35546e-05
-4.83813e-05
1.55631e-05
-5.09996e-05
7.45279e-06
-5.13319e-05
4.06562e-07
-4.92537e-05
-4.81999e-06
-4.52596e-05
-8.14675e-06
-4.02511e-05
-9.88799e-06
-3.49963e-05
-1.04679e-05
-2.99928e-05
-1.02736e-05
-2.54946e-05
-9.60759e-06
-2.15906e-05
-8.68494e-06
-1.82735e-05
-7.64851e-06
-1.54877e-05
-6.58788e-06
-1.31589e-05
-5.55618e-06
-1.12107e-05
-4.58295e-06
-9.57269e-06
-3.6832e-06
-8.18314e-06
-2.86343e-06
-6.98995e-06
-2.12563e-06
-5.94988e-06
-1.4699e-06
-5.02762e-06
-8.96153e-07
-4.19488e-06
-4.05175e-07
-3.43019e-06
-2.71731e-06
-8.53065e-07
5.63446e-06
-1.85634e-06
6.65677e-06
-2.95145e-06
7.25765e-06
-4.08541e-06
7.46448e-06
-5.2082e-06
7.29683e-06
-6.27066e-06
6.76534e-06
-7.22275e-06
5.8739e-06
-8.01224e-06
4.62172e-06
-8.5839e-06
3.00591e-06
-8.87942e-06
1.02475e-06
-8.83799e-06
-1.31869e-06
-8.39759e-06
-4.01299e-06
-7.49697e-06
-7.03267e-06
-6.07969e-06
-1.03313e-05
-4.09938e-06
-1.38366e-05
-1.52641e-06
-1.74465e-05
1.64439e-06
-2.1029e-05
5.39364e-06
-2.43978e-05
9.63925e-06
-2.73124e-05
1.42626e-05
-2.95919e-05
1.91178e-05
-3.1097e-05
2.40457e-05
-3.17466e-05
2.88885e-05
-3.15245e-05
3.35036e-05
-3.04756e-05
3.77723e-05
-2.86942e-05
4.16048e-05
-2.63087e-05
4.49414e-05
-2.34651e-05
4.77506e-05
-2.0313e-05
5.00252e-05
-1.69948e-05
5.1778e-05
-1.36381e-05
5.30369e-05
-1.03515e-05
5.38406e-05
-7.22228e-06
5.42344e-05
-4.31669e-06
5.42673e-05
-1.68078e-06
5.39888e-05
6.57735e-07
5.3448e-05
2.68523e-06
5.26928e-05
4.39896e-06
5.17683e-05
5.80572e-06
5.07159e-05
6.92007e-06
4.95732e-05
7.76254e-06
4.8373e-05
8.35788e-06
4.71439e-05
8.73345e-06
4.59096e-05
8.91782e-06
4.46901e-05
8.93958e-06
4.35009e-05
8.82639e-06
4.23545e-05
8.60425e-06
4.126e-05
8.29702e-06
4.02235e-05
7.92605e-06
3.92494e-05
7.51004e-06
3.83395e-05
7.06506e-06
3.74945e-05
6.60456e-06
3.67137e-05
6.13959e-06
3.59954e-05
5.67897e-06
3.53373e-05
5.22956e-06
3.47363e-05
4.79649e-06
3.41893e-05
4.38341e-06
3.36929e-05
3.99277e-06
3.32436e-05
3.62597e-06
3.28378e-05
3.28363e-06
3.24723e-05
2.96573e-06
3.21438e-05
2.67174e-06
3.18492e-05
2.40078e-06
3.15855e-05
2.15173e-06
3.13501e-05