/*--------------------------------*- C++ -*----------------------------------*\
| =========                 |                                                 |
| \\      /  F ield         | OpenFOAM: The Open Source CFD Toolbox           |
|  \\    /   O peration     | Version:  2306                                  |
|   \\  /    A nd           | Website:  www.openfoam.com                      |
|    \\/     M anipulation  |                                                 |
\*---------------------------------------------------------------------------*/
FoamFile
{
    version     2.0;
    format      ascii;
    arch        "LSB;label=32;scalar=64";
    class       volVectorField;
    location    "20";
    object      U;
}
// * * * * * * * * * * * * * * * * * * * * * * * * * * * * * * * * * * * * * //

dimensions      [0 1 -1 0 0 0 0];

internalField   nonuniform List<vector> 
4480
(
(-0.000102551 0 0.000101981)
(-0.000214599 0 0.000129559)
(-0.000412292 0 0.000141557)
(-0.000621767 0 0.000146998)
(-0.000830281 0 0.00014454)
(-0.00102887 0 0.000133909)
(-0.00120703 0 0.000115528)
(-0.00135413 0 8.97869e-05)
(-0.00145994 0 5.69488e-05)
(-0.00151462 0 1.7258e-05)
(-0.00150871 0 -2.89637e-05)
(-0.00143316 0 -8.1295e-05)
(-0.00127976 0 -0.000139004)
(-0.00104156 0 -0.000201007)
(-0.000713503 0 -0.000265824)
(-0.000292984 0 -0.00033157)
(0.000221595 0 -0.000396056)
(0.000824312 0 -0.000455771)
(0.00150719 0 -0.000507572)
(0.00225717 0 -0.000548844)
(0.00305762 0 -0.000577408)
(0.00388928 0 -0.000591764)
(0.00473129 0 -0.000591246)
(0.00556242 0 -0.000576064)
(0.00636234 0 -0.00054725)
(0.00711269 0 -0.000506514)
(0.00779796 0 -0.000456067)
(0.00840603 0 -0.000398411)
(0.00892846 0 -0.00033614)
(0.00936047 0 -0.000271764)
(0.00970076 0 -0.000207574)
(0.00995106 0 -0.000145544)
(0.0101157 0 -8.72798e-05)
(0.0102008 0 -3.39652e-05)
(0.0102141 0 1.36612e-05)
(0.0101644 0 5.52081e-05)
(0.01006 0 9.052e-05)
(0.00990988 0 0.00011968)
(0.00972269 0 0.000142919)
(0.00950658 0 0.000160604)
(0.00926913 0 0.000173202)
(0.00901718 0 0.000181249)
(0.00875679 0 0.000185317)
(0.00849317 0 0.000185985)
(0.00823075 0 0.000183822)
(0.00797315 0 0.000179364)
(0.00772326 0 0.000173106)
(0.00748329 0 0.000165496)
(0.00725488 0 0.000156922)
(0.00703913 0 0.000147722)
(0.00683673 0 0.000138178)
(0.00664796 0 0.000128523)
(0.00647287 0 0.000118942)
(0.00631121 0 0.00010958)
(0.00616261 0 0.000100545)
(0.00602653 0 9.19171e-05)
(0.00590235 0 8.37473e-05)
(0.00578939 0 7.60671e-05)
(0.00568695 0 6.8891e-05)
(0.00559432 0 6.22197e-05)
(0.00551077 0 5.6044e-05)
(0.00543562 0 5.03467e-05)
(0.0053682 0 4.51051e-05)
(0.00530789 0 4.02928e-05)
(0.0052541 0 3.58809e-05)
(0.00520628 0 3.18391e-05)
(0.00516393 0 2.81367e-05)
(0.00512659 0 2.47429e-05)
(0.00509385 0 2.16276e-05)
(0.00506533 0 1.87614e-05)
(0.00504069 0 1.61158e-05)
(0.00501966 0 1.36635e-05)
(0.00500197 0 1.1378e-05)
(0.0049874 0 9.23403e-06)
(0.00497578 0 7.20715e-06)
(0.00496694 0 5.27376e-06)
(0.00496078 0 3.41097e-06)
(0.00495721 0 1.59689e-06)
(0.00495618 0 -1.8923e-07)
(0.00495766 0 -1.96956e-06)
(0.00496166 0 -3.76652e-06)
(0.00496821 0 -5.60228e-06)
(0.00497739 0 -7.50093e-06)
(0.0049893 0 -9.48828e-06)
(0.00500409 0 -1.15921e-05)
(0.00502194 0 -1.38426e-05)
(0.00504307 0 -1.62732e-05)
(0.00506778 0 -1.89209e-05)
(0.00509638 0 -2.18274e-05)
(0.00512927 0 -2.50404e-05)
(0.00516693 0 -2.86143e-05)
(0.00520989 0 -3.26121e-05)
(0.00525881 0 -3.71074e-05)
(0.00531443 0 -4.21869e-05)
(0.00537765 0 -4.79532e-05)
(0.00544951 0 -5.45289e-05)
(0.00553123 0 -6.20616e-05)
(0.00562428 0 -7.07298e-05)
(0.00573039 0 -8.07515e-05)
(0.00585162 0 -9.23946e-05)
(0.00599046 0 -0.00010599)
(0.00614991 0 -0.00012195)
(0.00633362 0 -0.000140791)
(0.00654603 0 -0.000163158)
(0.00679263 0 -0.000189864)
(0.0070802 0 -0.000221923)
(0.0074172 0 -0.000260582)
(0.00781416 0 -0.000307344)
(0.00828418 0 -0.000363932)
(0.00884346 0 -0.000432201)
(0.00951269 0 -0.000514393)
(0.0103204 0 -0.000615975)
(0.011302 0 -0.0007558)
(0.0124713 0 -0.000985857)
(0.0138527 0 -0.00144601)
(0.0162643 0 -0.00280207)
(0.0237664 0 -0.00864395)
(0.0377179 0 -0.031647)
(0.0421288 0 -0.0806283)
(0.0190246 0 -0.101441)
(-0.0104015 0 -0.103618)
(-0.035476 0 -0.0840487)
(-0.0314511 0 -0.0326956)
(-0.0167909 0 -0.0090896)
(-0.00899424 0 -0.00289591)
(-0.00663618 0 -0.0014074)
(-0.00538242 0 -0.000901777)
(-0.00434209 0 -0.000662061)
(-0.00348165 0 -0.000527288)
(-0.00278489 0 -0.000435096)
(-0.00221516 0 -0.000362255)
(-0.00174458 0 -0.00030195)
(-0.00135419 0 -0.000251641)
(-0.00102988 0 -0.000209416)
(-0.000760774 0 -0.0001735)
(-0.00053876 0 -0.000142303)
(-0.00035759 0 -0.000114557)
(-0.000211726 0 -8.96762e-05)
(-9.86532e-05 0 -6.77772e-05)
(-4.43256e-05 0 -4.45457e-05)
(-0.000131394 0 0.000214242)
(-0.000270069 0 0.000267573)
(-0.000505871 0 0.000297694)
(-0.000752166 0 0.000309114)
(-0.000996294 0 0.000303133)
(-0.00122776 0 0.00028039)
(-0.00143413 0 0.000241604)
(-0.00160281 0 0.000187393)
(-0.00172161 0 0.000118249)
(-0.00177876 0 3.46635e-05)
(-0.00176297 0 -6.27181e-05)
(-0.00166353 0 -0.000172964)
(-0.00147076 0 -0.000294523)
(-0.00117656 0 -0.000425104)
(-0.000775108 0 -0.00056161)
(-0.000263336 0 -0.00070024)
(0.000360228 0 -0.000836213)
(0.00108781 0 -0.000962184)
(0.00191002 0 -0.00107176)
(0.00281122 0 -0.00115926)
(0.00377168 0 -0.00122002)
(0.00476864 0 -0.00125081)
(0.00577753 0 -0.00125022)
(0.0067734 0 -0.00121866)
(0.00773241 0 -0.00115828)
(0.00863302 0 -0.00107268)
(0.009457 0 -0.000966514)
(0.0101901 0 -0.00084506)
(0.0108222 0 -0.000713782)
(0.0113476 0 -0.00057797)
(0.0117644 0 -0.000442452)
(0.0120745 0 -0.00031139)
(0.0122825 0 -0.00018816)
(0.0123955 0 -7.52857e-05)
(0.0124222 0 2.56106e-05)
(0.0123728 0 0.000113702)
(0.0122572 0 0.000188688)
(0.0120859 0 0.00025069)
(0.0118692 0 0.000300189)
(0.0116167 0 0.000337947)
(0.0113375 0 0.000364943)
(0.0110399 0 0.0003823)
(0.0107311 0 0.000391217)
(0.0104176 0 0.000392916)
(0.0101045 0 0.000388592)
(0.00979653 0 0.000379379)
(0.00949712 0 0.000366325)
(0.00920907 0 0.000350373)
(0.00893443 0 0.000332352)
(0.00867463 0 0.000312977)
(0.00843057 0 0.000292849)
(0.00820268 0 0.000272462)
(0.00799106 0 0.000252214)
(0.00779549 0 0.000232413)
(0.00761555 0 0.000213295)
(0.00745063 0 0.000195025)
(0.00730002 0 0.000177719)
(0.00716292 0 0.000161444)
(0.00703851 0 0.000146232)
(0.00692594 0 0.000132087)
(0.00682435 0 0.00011899)
(0.00673293 0 0.000106904)
(0.00665087 0 9.57841e-05)
(0.00657742 0 8.55732e-05)
(0.00651189 0 7.62107e-05)
(0.0064536 0 6.7633e-05)
(0.00640196 0 5.9775e-05)
(0.0063564 0 5.25717e-05)
(0.00631644 0 4.59594e-05)
(0.00628161 0 3.98757e-05)
(0.00625152 0 3.42605e-05)
(0.0062258 0 2.90557e-05)
(0.00620416 0 2.42055e-05)
(0.00618632 0 1.96561e-05)
(0.00617206 0 1.53557e-05)
(0.00616121 0 1.12545e-05)
(0.00615362 0 7.304e-06)
(0.00614918 0 3.45739e-06)
(0.00614783 0 -3.30364e-07)
(0.00614955 0 -4.10477e-06)
(0.00615434 0 -7.91251e-06)
(0.00616224 0 -1.18018e-05)
(0.00617334 0 -1.58235e-05)
(0.00618777 0 -2.00323e-05)
(0.00620571 0 -2.44867e-05)
(0.00622736 0 -2.92507e-05)
(0.00625302 0 -3.43946e-05)
(0.00628302 0 -3.99967e-05)
(0.00631776 0 -4.61452e-05)
(0.00635772 0 -5.29402e-05)
(0.00640346 0 -6.04967e-05)
(0.00645565 0 -6.89474e-05)
(0.00651505 0 -7.84477e-05)
(0.00658259 0 -8.91797e-05)
(0.00665933 0 -0.00010136)
(0.00674652 0 -0.000115246)
(0.00684565 0 -0.000131149)
(0.00695846 0 -0.000149445)
(0.00708705 0 -0.000170594)
(0.00723388 0 -0.000195159)
(0.00740193 0 -0.000223841)
(0.00759481 0 -0.000257513)
(0.00781688 0 -0.000297274)
(0.00807353 0 -0.000344519)
(0.00837137 0 -0.000401026)
(0.00871873 0 -0.000469086)
(0.00912616 0 -0.000551673)
(0.00960733 0 -0.000652699)
(0.0101803 0 -0.000777429)
(0.0108702 0 -0.000933237)
(0.0117138 0 -0.00113146)
(0.012769 0 -0.00139285)
(0.0141305 0 -0.00176241)
(0.0159479 0 -0.00234028)
(0.0185043 0 -0.00334379)
(0.0225433 0 -0.00536918)
(0.0294509 0 -0.0106035)
(0.0369385 0 -0.0257514)
(0.0336566 0 -0.0579831)
(0.0160535 0 -0.0757267)
(-0.0070618 0 -0.0772068)
(-0.0258441 0 -0.0604728)
(-0.0293227 0 -0.0269032)
(-0.02144 0 -0.0110218)
(-0.0142799 0 -0.00544635)
(-0.0101689 0 -0.00326598)
(-0.00762526 0 -0.00219708)
(-0.0058599 0 -0.00160005)
(-0.00457172 0 -0.00123342)
(-0.00359886 0 -0.000983558)
(-0.00283882 0 -0.000798887)
(-0.00222947 0 -0.000655825)
(-0.0017328 0 -0.000541788)
(-0.00132407 0 -0.000448765)
(-0.000986318 0 -0.000371096)
(-0.000707645 0 -0.000304584)
(-0.000479248 0 -0.000246155)
(-0.000293391 0 -0.000193724)
(-0.00014489 0 -0.000145547)
(-6.73664e-05 0 -9.92589e-05)
(-0.000149279 0 0.000415499)
(-0.000312354 0 0.000505759)
(-0.000582328 0 0.000559362)
(-0.000860887 0 0.000578631)
(-0.00113547 0 0.00056558)
(-0.00139475 0 0.00052147)
(-0.00162488 0 0.000447394)
(-0.00181173 0 0.000344296)
(-0.0019416 0 0.000213009)
(-0.00200111 0 5.44466e-05)
(-0.00197744 0 -0.000130146)
(-0.00185838 0 -0.000338873)
(-0.00163289 0 -0.000568744)
(-0.0012917 0 -0.000815409)
(-0.000828164 0 -0.00107301)
(-0.000238613 0 -0.00133434)
(0.000478447 0 -0.00159018)
(0.00131413 0 -0.00182686)
(0.00225773 0 -0.00203266)
(0.00329119 0 -0.00219689)
(0.00439184 0 -0.00231084)
(0.00553359 0 -0.00236857)
(0.00668834 0 -0.00236746)
(0.00782769 0 -0.00230835)
(0.00892461 0 -0.00219527)
(0.0099548 0 -0.00203496)
(0.0108978 0 -0.00183606)
(0.0117376 0 -0.00160837)
(0.0124631 0 -0.00136202)
(0.0130678 0 -0.00110685)
(0.0135498 0 -0.000851836)
(0.0139108 0 -0.000604736)
(0.0141563 0 -0.000371876)
(0.0142939 0 -0.000158031)
(0.0143333 0 3.36036e-05)
(0.0142859 0 0.000201305)
(0.0141628 0 0.000344437)
(0.0139759 0 0.000463157)
(0.0137366 0 0.000558303)
(0.013456 0 0.000631265)
(0.0131443 0 0.000683841)
(0.0128108 0 0.000718113)
(0.0124639 0 0.000736316)
(0.0121109 0 0.000740736)
(0.0117578 0 0.000733621)
(0.0114098 0 0.00071711)
(0.011071 0 0.000693186)
(0.0107447 0 0.000663637)
(0.0104333 0 0.000630044)
(0.0101384 0 0.00059377)
(0.00986112 0 0.000555968)
(0.00960203 0 0.000517588)
(0.00936127 0 0.000479394)
(0.00913864 0 0.000441986)
(0.00893367 0 0.000405819)
(0.00874571 0 0.00037122)
(0.00857398 0 0.000338413)
(0.0084176 0 0.000307536)
(0.00827562 0 0.000278655)
(0.0081471 0 0.000251782)
(0.00803107 0 0.000226885)
(0.00792661 0 0.000203901)
(0.00783282 0 0.000182743)
(0.00774884 0 0.000163307)
(0.00767387 0 0.00014548)
(0.00760717 0 0.000129141)
(0.00754805 0 0.000114168)
(0.00749588 0 0.000100439)
(0.00745008 0 8.78329e-05)
(0.00741015 0 7.62318e-05)
(0.00737562 0 6.55217e-05)
(0.0073461 0 5.55925e-05)
(0.00732123 0 4.63383e-05)
(0.0073007 0 3.76571e-05)
(0.00728427 0 2.94507e-05)
(0.00727172 0 2.16241e-05)
(0.0072629 0 1.40852e-05)
(0.00725768 0 6.74488e-06)
(0.00725598 0 -4.83668e-07)
(0.00725779 0 -7.68622e-06)
(0.00726309 0 -1.4951e-05)
(0.00727195 0 -2.23702e-05)
(0.00728445 0 -3.00409e-05)
(0.00730074 0 -3.80665e-05)
(0.00732102 0 -4.65585e-05)
(0.00734553 0 -5.56378e-05)
(0.00737458 0 -6.54378e-05)
(0.00740856 0 -7.61069e-05)
(0.00744791 0 -8.78117e-05)
(0.00749317 0 -0.000100741)
(0.00754495 0 -0.000115113)
(0.00760401 0 -0.000131178)
(0.00767121 0 -0.000149227)
(0.00774754 0 -0.000169605)
(0.0078342 0 -0.000192718)
(0.00793257 0 -0.000219051)
(0.00804428 0 -0.000249187)
(0.00817124 0 -0.000283832)
(0.00831572 0 -0.000323846)
(0.00848044 0 -0.000370289)
(0.00866862 0 -0.000424473)
(0.00888415 0 -0.000488042)
(0.00913176 0 -0.00056307)
(0.00941724 0 -0.000652209)
(0.00974775 0 -0.000758889)
(0.0101323 0 -0.000887619)
(0.0105824 0 -0.00104445)
(0.011113 0 -0.00123774)
(0.0117443 0 -0.00147952)
(0.0125045 0 -0.00178799)
(0.0134336 0 -0.00219268)
(0.0145917 0 -0.00274537)
(0.0160676 0 -0.00354324)
(0.0179877 0 -0.00477329)
(0.0205273 0 -0.00679211)
(0.0239036 0 -0.0103073)
(0.0280069 0 -0.0168265)
(0.0305686 0 -0.0289843)
(0.0260426 0 -0.0465976)
(0.0132649 0 -0.0577113)
(-0.00345852 0 -0.0586589)
(-0.0170654 0 -0.0482136)
(-0.0218214 0 -0.0300788)
(-0.019137 0 -0.0174086)
(-0.0148575 0 -0.010532)
(-0.0113552 0 -0.00678947)
(-0.00874634 0 -0.0046408)
(-0.00680338 0 -0.003348)
(-0.00533895 0 -0.00252792)
(-0.00421465 0 -0.00197459)
(-0.00333203 0 -0.00157924)
(-0.00262486 0 -0.00128349)
(-0.00204924 0 -0.00105407)
(-0.00157552 0 -0.00087053)
(-0.00118325 0 -0.000719465)
(-0.000858076 0 -0.000591645)
(-0.000589379 0 -0.000480644)
(-0.000367599 0 -0.000382094)
(-0.000185576 0 -0.000292874)
(-8.57836e-05 0 -0.000211546)
(-0.000166471 0 0.000640424)
(-0.000348497 0 0.000769114)
(-0.000648509 0 0.000845465)
(-0.000956461 0 0.000871496)
(-0.00125914 0 0.000849585)
(-0.00154449 0 0.000781436)
(-0.0017975 0 0.00066844)
(-0.00200277 0 0.00051178)
(-0.00214525 0 0.000312552)
(-0.00221018 0 7.20518e-05)
(-0.00218329 0 -0.000207871)
(-0.00205087 0 -0.000524364)
(-0.00180044 0 -0.000872931)
(-0.00142135 0 -0.00124703)
(-0.00090584 0 -0.00163781)
(-0.000249476 0 -0.00203419)
(0.000549982 0 -0.00242211)
(0.0014827 0 -0.00278068)
(0.00253687 0 -0.00309221)
(0.00369196 0 -0.00334043)
(0.00492217 0 -0.00351212)
(0.00619775 0 -0.00359843)
(0.00748684 0 -0.00359556)
(0.00875739 0 -0.003505)
(0.00997913 0 -0.00333309)
(0.0111251 0 -0.00309015)
(0.0121729 0 -0.00278932)
(0.0131052 0 -0.0024454)
(0.0139102 0 -0.0020736)
(0.014581 0 -0.00168862)
(0.0151161 0 -0.00130387)
(0.0155179 0 -0.000930891)
(0.0157923 0 -0.000579104)
(0.015948 0 -0.000255648)
(0.0159958 0 3.46125e-05)
(0.0159481 0 0.000288992)
(0.0158171 0 0.000506469)
(0.0156158 0 0.000687224)
(0.0153569 0 0.000832466)
(0.0150523 0 0.000944236)
(0.0147134 0 0.0010252)
(0.0143504 0 0.00107847)
(0.0139723 0 0.00110736)
(0.0135873 0 0.00111532)
(0.013202 0 0.00110572)
(0.012822 0 0.00108177)
(0.012452 0 0.00104648)
(0.0120955 0 0.00100254)
(0.0117551 0 0.000952367)
(0.0114327 0 0.000898018)
(0.0111295 0 0.000841251)
(0.0108461 0 0.000783516)
(0.0105827 0 0.000725984)
(0.0103391 0 0.000669574)
(0.0101148 0 0.000614984)
(0.00990909 0 0.000562721)
(0.00972111 0 0.000513134)
(0.0095499 0 0.000466437)
(0.00939444 0 0.000422739)
(0.00925369 0 0.000382061)
(0.00912661 0 0.000344361)
(0.00901217 0 0.000309547)
(0.0089094 0 0.000277488)
(0.00881736 0 0.000248031)
(0.00873518 0 0.000221005)
(0.00866204 0 0.000196231)
(0.00859718 0 0.000173523)
(0.00853993 0 0.000152698)
(0.00848965 0 0.000133572)
(0.00844579 0 0.000115969)
(0.00840784 0 9.97157e-05)
(0.00837537 0 8.46457e-05)
(0.00834797 0 7.05993e-05)
(0.00832533 0 5.74224e-05)
(0.00830717 0 4.49664e-05)
(0.00829325 0 3.3088e-05)
(0.0082834 0 2.16479e-05)
(0.00827748 0 1.05108e-05)
(0.0082754 0 -4.55401e-07)
(0.00827715 0 -1.13801e-05)
(0.0082827 0 -2.23961e-05)
(0.00829211 0 -3.36427e-05)
(0.00830549 0 -4.52665e-05)
(0.00832299 0 -5.74233e-05)
(0.00834481 0 -7.02803e-05)
(0.00837122 0 -8.40195e-05)
(0.00840254 0 -9.88405e-05)
(0.00843917 0 -0.000114965)
(0.0084816 0 -0.000132643)
(0.00853037 0 -0.000152157)
(0.00858616 0 -0.000173828)
(0.00864974 0 -0.000198031)
(0.008722 0 -0.000225198)
(0.008804 0 -0.000255838)
(0.00889697 0 -0.000290552)
(0.00900234 0 -0.000330054)
(0.00912178 0 -0.000375203)
(0.00925725 0 -0.000427032)
(0.00941106 0 -0.000486805)
(0.00958595 0 -0.000556069)
(0.00978515 0 -0.000636743)
(0.0100125 0 -0.000731227)
(0.0102728 0 -0.000842554)
(0.0105716 0 -0.000974611)
(0.0109158 0 -0.00113245)
(0.0113142 0 -0.00132275)
(0.0117776 0 -0.00155457)
(0.0123199 0 -0.00184053)
(0.0129592 0 -0.00219878)
(0.0137193 0 -0.00265655)
(0.0146319 0 -0.00325636)
(0.015738 0 -0.00406723)
(0.0170867 0 -0.00520459)
(0.018726 0 -0.00686237)
(0.0206728 0 -0.00936023)
(0.0228303 0 -0.0132095)
(0.0247156 0 -0.0191682)
(0.0247873 0 -0.0279494)
(0.020397 0 -0.038401)
(0.0111264 0 -0.0453142)
(-0.000581954 0 -0.0459675)
(-0.0104556 0 -0.0395912)
(-0.0150704 0 -0.0289729)
(-0.0150143 0 -0.0198469)
(-0.013039 0 -0.0135645)
(-0.0107711 0 -0.00946667)
(-0.00873082 0 -0.00680106)
(-0.00702692 0 -0.00504283)
(-0.00564275 0 -0.00385302)
(-0.00452552 0 -0.00302021)
(-0.00361954 0 -0.00241607)
(-0.00287829 0 -0.00196274)
(-0.0022662 0 -0.00161185)
(-0.00175692 0 -0.00133231)
(-0.00133111 0 -0.00110337)
(-0.000974662 0 -0.000910726)
(-0.000676788 0 -0.000744488)
(-0.000427334 0 -0.000597908)
(-0.000218541 0 -0.000466525)
(-0.000101735 0 -0.000348621)
(-0.000182546 0 0.000885356)
(-0.000381535 0 0.0010559)
(-0.000709551 0 0.00115612)
(-0.00104575 0 0.00118883)
(-0.00137615 0 0.00115704)
(-0.00168803 0 0.00106291)
(-0.00196533 0 0.000908103)
(-0.00219154 0 0.000693953)
(-0.00235037 0 0.000421716)
(-0.00242568 0 9.2962e-05)
(-0.00240171 0 -0.000289938)
(-0.00226316 0 -0.000723244)
(-0.0019958 0 -0.00120097)
(-0.00158731 0 -0.00171428)
(-0.00102843 0 -0.00225112)
(-0.000313757 0 -0.00279611)
(0.000560665 0 -0.00333015)
(0.00158396 0 -0.00382389)
(0.0027435 0 -0.00425268)
(0.00401601 0 -0.00459375)
(0.00537202 0 -0.00482878)
(0.00677754 0 -0.0049456)
(0.00819632 0 -0.00493931)
(0.00959218 0 -0.00481238)
(0.0109313 0 -0.004574)
(0.0121841 0 -0.00423875)
(0.0133261 0 -0.003825)
(0.0143392 0 -0.00335316)
(0.0152111 0 -0.0028441)
(0.0159355 0 -0.00231781)
(0.0165115 0 -0.0017924)
(0.0169423 0 -0.00128343)
(0.0172353 0 -0.000803516)
(0.0174003 0 -0.000362208)
(0.0174493 0 3.39442e-05)
(0.0173957 0 0.0003813)
(0.0172531 0 0.000678452)
(0.0170355 0 0.000925636)
(0.0167565 0 0.00112448)
(0.0164291 0 0.00127776)
(0.0160654 0 0.00138907)
(0.0156763 0 0.00146262)
(0.0152716 0 0.00150293)
(0.0148598 0 0.00151466)
(0.0144481 0 0.00150239)
(0.0140424 0 0.0014705)
(0.0136476 0 0.00142307)
(0.0132673 0 0.00136378)
(0.0129045 0 0.00129591)
(0.012561 0 0.00122227)
(0.0122382 0 0.00114527)
(0.0119366 0 0.00106689)
(0.0116563 0 0.000988733)
(0.0113972 0 0.000912061)
(0.0111587 0 0.000837831)
(0.01094 0 0.000766742)
(0.0107403 0 0.000699273)
(0.0105583 0 0.000635723)
(0.0103932 0 0.000576241)
(0.0102437 0 0.000520862)
(0.0101087 0 0.00046953)
(0.00998715 0 0.000422121)
(0.009878 0 0.00037846)
(0.00978025 0 0.000338339)
(0.00969295 0 0.000301526)
(0.00961525 0 0.000267776)
(0.00954633 0 0.00023684)
(0.00948548 0 0.000208467)
(0.00943202 0 0.000182408)
(0.00938536 0 0.000158422)
(0.00934496 0 0.000136274)
(0.00931036 0 0.00011574)
(0.00928113 0 9.66011e-05)
(0.00925694 0 7.86486e-05)
(0.00923748 0 6.16809e-05)
(0.00922251 0 4.55033e-05)
(0.00921183 0 2.99268e-05)
(0.0092053 0 1.47674e-05)
(0.00920282 0 -1.54761e-07)
(0.00920435 0 -1.50156e-05)
(0.00920989 0 -2.99943e-05)
(0.00921949 0 -4.52797e-05)
(0.00923325 0 -6.10697e-05)
(0.00925132 0 -7.7574e-05)
(0.00927391 0 -9.50176e-05)
(0.00930128 0 -0.000113644)
(0.00933377 0 -0.000133722)
(0.00937178 0 -0.000155547)
(0.00941579 0 -0.000179451)
(0.00946637 0 -0.00020581)
(0.00952418 0 -0.000235053)
(0.00958999 0 -0.000267672)
(0.0096647 0 -0.000304239)
(0.00974936 0 -0.000345424)
(0.00984516 0 -0.000392014)
(0.00995352 0 -0.000444943)
(0.010076 0 -0.00050533)
(0.0102146 0 -0.000574517)
(0.0103715 0 -0.000654138)
(0.0105492 0 -0.00074619)
(0.0107509 0 -0.000853136)
(0.0109799 0 -0.000978051)
(0.0112407 0 -0.00112481)
(0.0115382 0 -0.00129834)
(0.0118786 0 -0.00150507)
(0.0122691 0 -0.0017534)
(0.0127187 0 -0.00205468)
(0.0132382 0 -0.00242444)
(0.0138406 0 -0.00288461)
(0.0145415 0 -0.00346678)
(0.0153583 0 -0.00421766)
(0.0163077 0 -0.00520733)
(0.0173985 0 -0.00654137)
(0.0186142 0 -0.00837628)
(0.0198784 0 -0.0109335)
(0.0209867 0 -0.0145)
(0.0214699 0 -0.0193718)
(0.0203831 0 -0.0255891)
(0.0164809 0 -0.0321636)
(0.00968501 0 -0.0365108)
(0.00147636 0 -0.0369637)
(-0.00575007 0 -0.0330534)
(-0.0098443 0 -0.0264749)
(-0.0110058 0 -0.0200487)
(-0.0104986 0 -0.0149232)
(-0.00931692 0 -0.0111304)
(-0.0079666 0 -0.00839918)
(-0.00667242 0 -0.00644428)
(-0.00551986 0 -0.00503514)
(-0.00452719 0 -0.00400323)
(-0.00368388 0 -0.00323181)
(-0.00297023 0 -0.00264189)
(-0.00236598 0 -0.00218004)
(-0.00185334 0 -0.00180969)
(-0.00141779 0 -0.0015054)
(-0.00104793 0 -0.00124915)
(-0.00073452 0 -0.0010282)
(-0.000468137 0 -0.000833685)
(-0.000241531 0 -0.000659745)
(-0.000113195 0 -0.000503674)
(-0.000197817 0 0.00115138)
(-0.000413307 0 0.00136763)
(-0.000768909 0 0.00149377)
(-0.00113365 0 0.00153394)
(-0.00149287 0 0.00149202)
(-0.00183324 0 0.00137068)
(-0.00213784 0 0.00117179)
(-0.00238903 0 0.00089675)
(-0.00256932 0 0.000546812)
(-0.00266112 0 0.000123648)
(-0.00264703 0 -0.000370009)
(-0.00250991 0 -0.000929683)
(-0.00223348 0 -0.00154797)
(-0.0018033 0 -0.00221373)
(-0.00120806 0 -0.00291146)
(-0.000441166 0 -0.00362101)
(0.000503941 0 -0.00431807)
(0.00161533 0 -0.00496312)
(0.00287974 0 -0.00552328)
(0.00427075 0 -0.00596793)
(0.00575435 0 -0.0062727)
(0.00729142 0 -0.00642177)
(0.00884041 0 -0.00640919)
(0.0103603 0 -0.00623892)
(0.0118133 0 -0.00592382)
(0.0131669 0 -0.00548373)
(0.014395 0 -0.0049432)
(0.0154786 0 -0.00432913)
(0.0164058 0 -0.00366876)
(0.0171711 0 -0.00298789)
(0.0177749 0 -0.00230971)
(0.0182221 0 -0.00165396)
(0.0185216 0 -0.00103652)
(0.018685 0 -0.000469354)
(0.0187257 0 3.94161e-05)
(0.0186584 0 0.00048529)
(0.018498 0 0.000866537)
(0.0182596 0 0.00118354)
(0.0179577 0 0.00143845)
(0.0176062 0 0.00163488)
(0.0172178 0 0.00177749)
(0.0168041 0 0.00187169)
(0.0163753 0 0.00192331)
(0.0159401 0 0.00193831)
(0.0155061 0 0.00192259)
(0.0150794 0 0.00188174)
(0.0146649 0 0.001821)
(0.0142664 0 0.00174508)
(0.0138867 0 0.00165818)
(0.0135277 0 0.0015639)
(0.0131907 0 0.00146534)
(0.0128762 0 0.00136501)
(0.0125843 0 0.00126498)
(0.0123146 0 0.00116685)
(0.0120666 0 0.00107186)
(0.0118394 0 0.000980904)
(0.0116319 0 0.000894583)
(0.0114431 0 0.000813284)
(0.0112718 0 0.000737198)
(0.0111168 0 0.000666367)
(0.0109769 0 0.000600719)
(0.0108509 0 0.000540092)
(0.0107378 0 0.000484264)
(0.0106366 0 0.000432966)
(0.0105462 0 0.000385901)
(0.0104657 0 0.000342755)
(0.0103943 0 0.000303209)
(0.0103313 0 0.00026694)
(0.0102759 0 0.000233632)
(0.0102275 0 0.000202976)
(0.0101856 0 0.000174673)
(0.0101497 0 0.000148434)
(0.0101193 0 0.000123982)
(0.0100941 0 0.00010105)
(0.0100738 0 7.93822e-05)
(0.0100581 0 5.87299e-05)
(0.0100467 0 3.88528e-05)
(0.0100397 0 1.95165e-05)
(0.0100368 0 4.91672e-07)
(0.010038 0 -1.84458e-05)
(0.0100433 0 -3.75236e-05)
(0.0100527 0 -5.69804e-05)
(0.0100664 0 -7.70662e-05)
(0.0100844 0 -9.80451e-05)
(0.0101071 0 -0.0001202)
(0.0101345 0 -0.000143836)
(0.0101672 0 -0.000169288)
(0.0102053 0 -0.000196925)
(0.0102495 0 -0.000227161)
(0.0103003 0 -0.00026046)
(0.0103583 0 -0.000297352)
(0.0104242 0 -0.000338444)
(0.0104989 0 -0.000384439)
(0.0105834 0 -0.000436153)
(0.0106788 0 -0.000494546)
(0.0107864 0 -0.00056075)
(0.0109077 0 -0.000636113)
(0.0110445 0 -0.000722251)
(0.0111987 0 -0.000821112)
(0.0113726 0 -0.000935069)
(0.0115688 0 -0.00106703)
(0.0117905 0 -0.00122061)
(0.0120411 0 -0.00140031)
(0.0123247 0 -0.00161184)
(0.012646 0 -0.00186252)
(0.0130103 0 -0.00216183)
(0.0134239 0 -0.00252231)
(0.0138935 0 -0.00296075)
(0.014426 0 -0.0035)
(0.0150277 0 -0.00417154)
(0.0157022 0 -0.00501915)
(0.0164458 0 -0.00610362)
(0.017239 0 -0.00750798)
(0.0180302 0 -0.00934107)
(0.0187099 0 -0.0117336)
(0.0190707 0 -0.0148154)
(0.0187526 0 -0.0186499)
(0.0172041 0 -0.023069)
(0.013858 0 -0.0273559)
(0.00878148 0 -0.0301373)
(0.00289533 0 -0.0304465)
(-0.00247542 0 -0.0280196)
(-0.00598202 0 -0.0238059)
(-0.00762251 0 -0.0192775)
(-0.00795629 0 -0.0152623)
(-0.00755612 0 -0.0119941)
(-0.00680868 0 -0.00944123)
(-0.00594146 0 -0.00748495)
(-0.00507638 0 -0.00599377)
(-0.00427099 0 -0.00485257)
(-0.0035469 0 -0.00397034)
(-0.00290754 0 -0.00327869)
(-0.00234822 0 -0.00272733)
(-0.00186132 0 -0.00227948)
(-0.00143881 0 -0.0019082)
(-0.00107353 0 -0.00159369)
(-0.000758945 0 -0.00132143)
(-0.000487429 0 -0.001081)
(-0.000253075 0 -0.00086531)
(-0.000119137 0 -0.000670448)
(-0.000212966 0 0.0014387)
(-0.000445073 0 0.00170464)
(-0.000828669 0 0.00185928)
(-0.00122299 0 0.00190841)
(-0.00161285 0 0.00185693)
(-0.00198446 0 0.00170806)
(-0.00232005 0 0.00146381)
(-0.00260096 0 0.00112543)
(-0.0028084 0 0.000693978)
(-0.00292323 0 0.000170964)
(-0.00292616 0 -0.000440773)
(-0.00279793 0 -0.00113625)
(-0.00251976 0 -0.00190684)
(-0.0020746 0 -0.0027391)
(-0.00144855 0 -0.0036139)
(-0.000633082 0 -0.00450597)
(0.000380315 0 -0.00538463)
(0.00158084 0 -0.00619992)
(0.00295335 0 -0.00690767)
(0.00446794 0 -0.00746789)
(0.006085 0 -0.0078491)
(0.00775907 0 -0.00803136)
(0.00944223 0 -0.00800788)
(0.0110877 0 -0.00778489)
(0.0126533 0 -0.00738006)
(0.0141032 0 -0.00681977)
(0.0154099 0 -0.00613597)
(0.016554 0 -0.0053632)
(0.0175245 0 -0.00453585)
(0.0183175 0 -0.00368616)
(0.0189352 0 -0.00284273)
(0.0193849 0 -0.00202962)
(0.0196776 0 -0.00126599)
(0.0198269 0 -0.000566041)
(0.0198483 0 6.07103e-05)
(0.0197578 0 0.00060911)
(0.0195717 0 0.00107725)
(0.0193062 0 0.00146581)
(0.018977 0 0.00177765)
(0.0185986 0 0.00201736)
(0.0181843 0 0.00219084)
(0.0177461 0 0.00230483)
(0.0172944 0 0.00236658)
(0.0168382 0 0.00238348)
(0.0163851 0 0.00236278)
(0.0159412 0 0.00231142)
(0.0155113 0 0.00223579)
(0.0150991 0 0.00214171)
(0.0147073 0 0.00203431)
(0.0143378 0 0.00191801)
(0.0139916 0 0.00179658)
(0.013669 0 0.00167311)
(0.0133701 0 0.00155012)
(0.0130945 0 0.00142955)
(0.0128413 0 0.00131291)
(0.0126096 0 0.00120128)
(0.0123982 0 0.0010954)
(0.0122061 0 0.000995714)
(0.012032 0 0.000902461)
(0.0118745 0 0.000815681)
(0.0117324 0 0.000735277)
(0.0116047 0 0.000661046)
(0.01149 0 0.000592709)
(0.0113874 0 0.000529933)
(0.0112957 0 0.00047235)
(0.0112142 0 0.000419574)
(0.0111419 0 0.000371211)
(0.011078 0 0.000326864)
(0.0110218 0 0.000286145)
(0.0109728 0 0.000248675)
(0.0109303 0 0.000214088)
(0.0108938 0 0.000182031)
(0.0108629 0 0.000152164)
(0.0108372 0 0.000124164)
(0.0108164 0 9.77163e-05)
(0.0108003 0 7.25194e-05)
(0.0107886 0 4.82808e-05)
(0.0107811 0 2.47153e-05)
(0.0107778 0 1.54352e-06)
(0.0107786 0 -2.15077e-05)
(0.0107834 0 -4.47146e-05)
(0.0107924 0 -6.83656e-05)
(0.0108055 0 -9.27614e-05)
(0.010823 0 -0.000118219)
(0.010845 0 -0.000145078)
(0.0108717 0 -0.000173702)
(0.0109036 0 -0.00020449)
(0.0109408 0 -0.00023788)
(0.0109839 0 -0.00027436)
(0.0110334 0 -0.000314479)
(0.0110898 0 -0.000358858)
(0.0111538 0 -0.000408207)
(0.0112263 0 -0.000463342)
(0.0113081 0 -0.000525212)
(0.0114002 0 -0.000594922)
(0.0115037 0 -0.00067377)
(0.01162 0 -0.000763294)
(0.0117506 0 -0.000865323)
(0.0118972 0 -0.000982053)
(0.0120615 0 -0.00111613)
(0.0122458 0 -0.00127079)
(0.0124524 0 -0.00144998)
(0.0126839 0 -0.00165861)
(0.0129433 0 -0.00190278)
(0.0132336 0 -0.00219021)
(0.013558 0 -0.00253074)
(0.0139198 0 -0.00293702)
(0.0143213 0 -0.00342549)
(0.014764 0 -0.00401764)
(0.0152461 0 -0.00474167)
(0.0157606 0 -0.00563437)
(0.0162906 0 -0.00674296)
(0.0168012 0 -0.00812577)
(0.017229 0 -0.00984961)
(0.0174655 0 -0.0119794)
(0.0173389 0 -0.0145532)
(0.0166008 0 -0.0175323)
(0.014941 0 -0.0207103)
(0.0121139 0 -0.0235924)
(0.00823147 0 -0.0254173)
(0.00386559 0 -0.0256268)
(-0.000183847 0 -0.0240988)
(-0.00315835 0 -0.0213158)
(-0.00490633 0 -0.0180954)
(-0.00567909 0 -0.0149973)
(-0.00579054 0 -0.01228)
(-0.0055054 0 -0.0100135)
(-0.00501131 0 -0.00817476)
(-0.00442882 0 -0.00670329)
(-0.00382931 0 -0.00553058)
(-0.00325164 0 -0.00459353)
(-0.00271477 0 -0.00383922)
(-0.00222628 0 -0.00322523)
(-0.00178759 0 -0.00271832)
(-0.00139718 0 -0.00229279)
(-0.00105245 0 -0.00192885)
(-0.000750159 0 -0.0016114)
(-0.000485042 0 -0.00132916)
(-0.000253065 0 -0.00107415)
(-0.000119512 0 -0.000841254)
(-0.000228302 0 0.00174747)
(-0.000477291 0 0.00206724)
(-0.000889448 0 0.0022534)
(-0.00131446 0 0.00231365)
(-0.0017368 0 0.00225404)
(-0.00214237 0 0.00207828)
(-0.00251265 0 0.00178837)
(-0.00282794 0 0.00138521)
(-0.00306813 0 0.000869327)
(-0.00321234 0 0.000241728)
(-0.00323913 0 -0.000495)
(-0.00312674 0 -0.0013357)
(-0.00285348 0 -0.00227077)
(-0.0023991 0 -0.00328459)
(-0.00174651 0 -0.00435424)
(-0.000884466 0 -0.00544879)
(0.000196628 0 -0.00652973)
(0.00148987 0 -0.00753723)
(0.00297633 0 -0.00841103)
(0.00462236 0 -0.00910007)
(0.00638142 0 -0.00956447)
(0.00820025 0 -0.00977969)
(0.0100233 0 -0.00973848)
(0.0117971 0 -0.00945044)
(0.0134742 0 -0.00893956)
(0.0150159 0 -0.00824041)
(0.0163932 0 -0.00739396)
(0.0175872 0 -0.00644361)
(0.0185881 0 -0.00543194)
(0.0193943 0 -0.00439819)
(0.0200109 0 -0.00337672)
(0.020448 0 -0.00239598)
(0.0207194 0 -0.00147829)
(0.0208413 0 -0.000639855)
(0.0208313 0 0.000108768)
(0.020707 0 0.000762042)
(0.0204865 0 0.00131811)
(0.0201871 0 0.00177819)
(0.0198254 0 0.00214608)
(0.0194166 0 0.00242757)
(0.0189744 0 0.00262997)
(0.0185112 0 0.00276156)
(0.0180374 0 0.00283111)
(0.0175621 0 0.00284755)
(0.0170925 0 0.00281961)
(0.0166348 0 0.00275556)
(0.0161934 0 0.00266305)
(0.0157718 0 0.00254898)
(0.0153725 0 0.00241944)
(0.014997 0 0.00227968)
(0.0146461 0 0.00213412)
(0.0143201 0 0.00198642)
(0.0140187 0 0.00183952)
(0.0137413 0 0.00169573)
(0.013487 0 0.00155677)
(0.0132547 0 0.00142392)
(0.0130431 0 0.00129801)
(0.012851 0 0.00117957)
(0.0126771 0 0.00106885)
(0.0125201 0 0.00096588)
(0.0123786 0 0.000870528)
(0.0122514 0 0.000782542)
(0.0121373 0 0.00070158)
(0.0120352 0 0.000627237)
(0.0119442 0 0.000559072)
(0.0118632 0 0.00049662)
(0.0117914 0 0.000439408)
(0.0117279 0 0.000386964)
(0.0116722 0 0.000338826)
(0.0116235 0 0.000294542)
(0.0115812 0 0.000253678)
(0.0115449 0 0.000215816)
(0.0115141 0 0.000180554)
(0.0114885 0 0.000147509)
(0.0114676 0 0.000116312)
(0.0114514 0 8.66061e-05)
(0.0114394 0 5.80479e-05)
(0.0114317 0 3.03018e-05)
(0.0114279 0 3.03975e-06)
(0.0114282 0 -2.40603e-05)
(0.0114324 0 -5.13226e-05)
(0.0114407 0 -7.9083e-05)
(0.0114529 0 -0.000107691)
(0.0114694 0 -0.000137514)
(0.0114901 0 -0.000168944)
(0.0115155 0 -0.000202398)
(0.0115456 0 -0.000238335)
(0.011581 0 -0.000277255)
(0.0116218 0 -0.000319714)
(0.0116687 0 -0.000366332)
(0.0117221 0 -0.000417811)
(0.0117826 0 -0.000474948)
(0.0118509 0 -0.000538656)
(0.0119277 0 -0.000609987)
(0.012014 0 -0.000690164)
(0.0121106 0 -0.000780611)
(0.0122187 0 -0.000883005)
(0.0123395 0 -0.000999328)
(0.0124742 0 -0.00113193)
(0.0126243 0 -0.00128364)
(0.0127913 0 -0.00145785)
(0.0129768 0 -0.00165867)
(0.0131826 0 -0.00189113)
(0.0134102 0 -0.0021614)
(0.0136612 0 -0.00247713)
(0.0139366 0 -0.00284783)
(0.0142369 0 -0.00328539)