/*--------------------------------*- C++ -*----------------------------------*\
| =========                 |                                                 |
| \\      /  F ield         | OpenFOAM: The Open Source CFD Toolbox           |
|  \\    /   O peration     | Version:  2306                                  |
|   \\  /    A nd           | Website:  www.openfoam.com                      |
|    \\/     M anipulation  |                                                 |
\*---------------------------------------------------------------------------*/
FoamFile
{
    version     2.0;
    format      ascii;
    arch        "LSB;label=32;scalar=64";
    class       volVectorField;
    location    "20";
    object      UMean;
}
// * * * * * * * * * * * * * * * * * * * * * * * * * * * * * * * * * * * * * //

dimensions      [0 1 -1 0 0 0 0];

internalField   nonuniform List<vector> 
4480
(
(-6.40467e-05 0 6.34971e-05)
(-0.000132845 0 7.77263e-05)
(-0.000249457 0 8.11365e-05)
(-0.000366974 0 7.95516e-05)
(-0.00047651 0 7.23726e-05)
(-0.000571639 0 5.96161e-05)
(-0.0006452 0 4.16658e-05)
(-0.000690074 0 1.88437e-05)
(-0.000699525 0 -8.61141e-06)
(-0.000667143 0 -4.04691e-05)
(-0.000586871 0 -7.64351e-05)
(-0.000453127 0 -0.000116063)
(-0.000261072 0 -0.000158707)
(-6.94068e-06 0 -0.000203469)
(0.000311606 0 -0.000249168)
(0.000695122 0 -0.000294329)
(0.00114173 0 -0.000337124)
(0.00164665 0 -0.00037555)
(0.00220255 0 -0.000407726)
(0.00279932 0 -0.000431973)
(0.00342467 0 -0.000446959)
(0.00406467 0 -0.000451839)
(0.00470458 0 -0.000446344)
(0.00532967 0 -0.00043079)
(0.00592606 0 -0.000406041)
(0.00648143 0 -0.000373404)
(0.00698563 0 -0.000334501)
(0.00743093 0 -0.000291125)
(0.00781227 0 -0.000245103)
(0.00812715 0 -0.000198175)
(0.00837543 0 -0.000151905)
(0.00855907 0 -0.000107617)
(0.00868171 0 -6.6364e-05)
(0.00874826 0 -2.89078e-05)
(0.00876455 0 4.29186e-06)
(0.00873699 0 3.30175e-05)
(0.00867183 0 5.72343e-05)
(0.00857545 0 7.70655e-05)
(0.00845399 0 9.27386e-05)
(0.00831315 0 0.000104565)
(0.00815814 0 0.000112916)
(0.0079936 0 0.000118198)
(0.0078236 0 0.00012083)
(0.00765158 0 0.000121225)
(0.00748045 0 0.000119779)
(0.00731252 0 0.000116856)
(0.00714966 0 0.000112788)
(0.00699325 0 0.000107867)
(0.00684433 0 0.000102345)
(0.00670356 0 9.64375e-05)
(0.00657137 0 9.03217e-05)
(0.00644792 0 8.41419e-05)
(0.00633323 0 7.80128e-05)
(0.00622714 0 7.20226e-05)
(0.00612941 0 6.62371e-05)
(0.0060397 0 6.07032e-05)
(0.00595764 0 5.5452e-05)
(0.0058828 0 5.05018e-05)
(0.00581475 0 4.58608e-05)
(0.00575304 0 4.1529e-05)
(0.00569725 0 3.75005e-05)
(0.00564695 0 3.37643e-05)
(0.00560173 0 3.03065e-05)
(0.00556121 0 2.71105e-05)
(0.00552504 0 2.41584e-05)
(0.00549287 0 2.14312e-05)
(0.00546441 0 1.89094e-05)
(0.00543937 0 1.65735e-05)
(0.00541752 0 1.44041e-05)
(0.00539862 0 1.23821e-05)
(0.00538248 0 1.04885e-05)
(0.00536893 0 8.70508e-06)
(0.00535783 0 7.01375e-06)
(0.00534906 0 5.39692e-06)
(0.00534253 0 3.83732e-06)
(0.00533817 0 2.31804e-06)
(0.00533593 0 8.22454e-07)
(0.00533579 0 -6.65879e-07)
(0.00533776 0 -2.16362e-06)
(0.00534185 0 -3.68837e-06)
(0.00534811 0 -5.25856e-06)
(0.00535663 0 -6.89395e-06)
(0.00536751 0 -8.61592e-06)
(0.00538088 0 -1.04476e-05)
(0.00539693 0 -1.24145e-05)
(0.00541585 0 -1.45445e-05)
(0.00543789 0 -1.6869e-05)
(0.00546337 0 -1.94232e-05)
(0.00549261 0 -2.22473e-05)
(0.00552604 0 -2.5387e-05)
(0.00556413 0 -2.88956e-05)
(0.00560743 0 -3.28348e-05)
(0.00565661 0 -3.7277e-05)
(0.00571242 0 -4.23076e-05)
(0.00577576 0 -4.80281e-05)
(0.00584767 0 -5.45599e-05)
(0.00592938 0 -6.20492e-05)
(0.00602235 0 -7.06731e-05)
(0.0061283 0 -8.06479e-05)
(0.00624931 0 -9.22391e-05)
(0.00638785 0 -0.000105775)
(0.00654689 0 -0.000121666)
(0.00673007 0 -0.000140421)
(0.00694182 0 -0.000162686)
(0.00718759 0 -0.000189265)
(0.00747412 0 -0.000221167)
(0.00780981 0 -0.000259637)
(0.00820514 0 -0.000306171)
(0.00867315 0 -0.000362492)
(0.00922997 0 -0.00043045)
(0.00989619 0 -0.000512277)
(0.0107002 0 -0.000613384)
(0.0116772 0 -0.000752445)
(0.0128409 0 -0.00098106)
(0.014215 0 -0.00143834)
(0.0166143 0 -0.00278824)
(0.02409 0 -0.00861672)
(0.0380028 0 -0.0316064)
(0.0424079 0 -0.0805366)
(0.0193147 0 -0.101379)
(-0.0101197 0 -0.103669)
(-0.0353045 0 -0.084124)
(-0.0313183 0 -0.0326908)
(-0.0166804 0 -0.00907006)
(-0.00891559 0 -0.0028719)
(-0.00659127 0 -0.00138479)
(-0.00536673 0 -0.000882564)
(-0.00435001 0 -0.000646813)
(-0.00350769 0 -0.000515999)
(-0.00282383 0 -0.000427515)
(-0.00226218 0 -0.000358028)
(-0.00179536 0 -0.000300669)
(-0.00140499 0 -0.000252862)
(-0.00107758 0 -0.00021266)
(-0.000802923 0 -0.000178262)
(-0.000573624 0 -0.000148055)
(-0.000384132 0 -0.000120761)
(-0.000229516 0 -9.58423e-05)
(-0.000107997 0 -7.35299e-05)
(-4.89115e-05 0 -4.91537e-05)
(-7.939e-05 0 0.00013249)
(-0.000162123 0 0.000159901)
(-0.000298362 0 0.000170355)
(-0.000433998 0 0.000167273)
(-0.000559853 0 0.000151916)
(-0.000668297 0 0.000125038)
(-0.000750788 0 8.73347e-05)
(-0.00079885 0 3.93666e-05)
(-0.000804417 0 -1.8404e-05)
(-0.000759805 0 -8.54998e-05)
(-0.000657759 0 -0.000161298)
(-0.000491627 0 -0.000244872)
(-0.000255682 0 -0.000334867)
(5.45132e-05 0 -0.000429405)
(0.000441671 0 -0.000526017)
(0.000906373 0 -0.000621599)
(0.00144618 0 -0.000712282)
(0.00205535 0 -0.000793868)
(0.00272511 0 -0.00086234)
(0.00344338 0 -0.00091409)
(0.00419553 0 -0.000946258)
(0.00496501 0 -0.000957024)
(0.00573435 0 -0.000945788)
(0.00648609 0 -0.000913209)
(0.00720381 0 -0.000861106)
(0.00787296 0 -0.000792248)
(0.00848147 0 -0.000710073)
(0.0090202 0 -0.000618382)
(0.00948307 0 -0.000521046)
(0.00986702 0 -0.00042175)
(0.0101718 0 -0.000323804)
(0.0103994 0 -0.000230011)
(0.0105542 0 -0.000142594)
(0.0106418 0 -6.31733e-05)
(0.0106688 0 7.24601e-06)
(0.0106429 0 6.8207e-05)
(0.0105715 0 0.000119648)
(0.0104621 0 0.000161806)
(0.010322 0 0.000195157)
(0.010158 0 0.00022036)
(0.00997645 0 0.000238197)
(0.00978282 0 0.000249528)
(0.00958205 0 0.000255235)
(0.00937832 0 0.000256193)
(0.00917515 0 0.000253237)
(0.00897538 0 0.000247141)
(0.0087813 0 0.000238605)
(0.00859464 0 0.00022825)
(0.00841666 0 0.000216611)
(0.00824823 0 0.000204145)
(0.0080899 0 0.000191228)
(0.0079419 0 0.000178169)
(0.00780428 0 0.000165209)
(0.00767688 0 0.000152539)
(0.00755944 0 0.000140298)
(0.00745158 0 0.000128585)
(0.00735285 0 0.000117469)
(0.00726276 0 0.000106989)
(0.00718081 0 9.71614e-05)
(0.00710647 0 8.79879e-05)
(0.00703923 0 7.94556e-05)
(0.00697858 0 7.15421e-05)
(0.00692404 0 6.42177e-05)
(0.00687516 0 5.74476e-05)
(0.0068315 0 5.11939e-05)
(0.00679268 0 4.54165e-05)
(0.00675832 0 4.00743e-05)
(0.00672809 0 3.5126e-05)
(0.0067017 0 3.05304e-05)
(0.00667888 0 2.6247e-05)
(0.00665939 0 2.22362e-05)
(0.00664303 0 1.84588e-05)
(0.00662964 0 1.48769e-05)
(0.00661906 0 1.14532e-05)
(0.00661119 0 8.15112e-06)
(0.00660594 0 4.93473e-06)
(0.00660327 0 1.76884e-06)
(0.00660314 0 -1.38142e-06)
(0.00660555 0 -4.55125e-06)
(0.00661054 0 -7.7776e-06)
(0.00661817 0 -1.10997e-05)
(0.00662854 0 -1.45594e-05)
(0.00664176 0 -1.82019e-05)
(0.00665802 0 -2.2076e-05)
(0.00667751 0 -2.62353e-05)
(0.00670049 0 -3.0739e-05)
(0.00672726 0 -3.5653e-05)
(0.00675818 0 -4.10518e-05)
(0.00679368 0 -4.70197e-05)
(0.00683424 0 -5.36537e-05)
(0.00688045 0 -6.10654e-05)
(0.00693298 0 -6.93851e-05)
(0.00699261 0 -7.87651e-05)
(0.00706026 0 -8.93852e-05)
(0.007137 0 -0.000101459)
(0.00722409 0 -0.000115242)
(0.00732301 0 -0.000131041)
(0.0074355 0 -0.00014923)
(0.00756363 0 -0.000170263)
(0.00770988 0 -0.0001947)
(0.0078772 0 -0.000223236)
(0.00806916 0 -0.000256736)
(0.00829011 0 -0.000296291)
(0.00854538 0 -0.000343283)
(0.00884154 0 -0.000399481)
(0.00918685 0 -0.000467161)
(0.00959176 0 -0.00054928)
(0.0100698 0 -0.000649736)
(0.0106391 0 -0.000773769)
(0.0113243 0 -0.000928728)
(0.012162 0 -0.0011259)
(0.01321 0 -0.00138592)
(0.0145623 0 -0.00175352)
(0.0163679 0 -0.00232834)
(0.018909 0 -0.00332687)
(0.0229275 0 -0.00534383)
(0.0298061 0 -0.0105632)
(0.0372584 0 -0.0256856)
(0.0339571 0 -0.0578788)
(0.0163421 0 -0.0756459)
(-0.00679182 0 -0.0771958)
(-0.0256603 0 -0.0604789)
(-0.0291783 0 -0.0268707)
(-0.0213252 0 -0.0109741)
(-0.0141985 0 -0.00539693)
(-0.0101208 0 -0.00322085)
(-0.00760699 0 -0.00215875)
(-0.00586679 0 -0.00156938)
(-0.0045986 0 -0.00121047)
(-0.00364044 0 -0.000967934)
(-0.00288996 0 -0.000789981)
(-0.00228541 0 -0.000652877)
(-0.00178933 0 -0.000543933)
(-0.00137762 0 -0.000455054)
(-0.00103405 0 -0.000380516)
(-0.000747488 0 -0.000316078)
(-0.000509928 0 -0.000258648)
(-0.000314309 0 -0.000206174)
(-0.000156192 0 -0.000156962)
(-7.30289e-05 0 -0.000108583)
(-8.80873e-05 0 0.000252282)
(-0.000183485 0 0.000298294)
(-0.000337146 0 0.000316601)
(-0.000488713 0 0.000309889)
(-0.000628815 0 0.000280287)
(-0.000749083 0 0.000229235)
(-0.000839929 0 0.00015788)
(-0.000891789 0 6.71555e-05)
(-0.000895497 0 -4.21189e-05)
(-0.000842257 0 -0.000169042)
(-0.000723719 0 -0.000312404)
(-0.000532186 0 -0.000470435)
(-0.000260976 0 -0.000640561)
(9.51408e-05 0 -0.000819224)
(0.000539446 0 -0.00100175)
(0.00107282 0 -0.00118226)
(0.00169257 0 -0.00135347)
(0.0023923 0 -0.00150751)
(0.00316196 0 -0.00163682)
(0.00398767 0 -0.00173457)
(0.00485248 0 -0.00179539)
(0.00573729 0 -0.00181587)
(0.00662188 0 -0.00179489)
(0.00748615 0 -0.00173372)
(0.00831124 0 -0.0016358)
(0.00908051 0 -0.00150631)
(0.00978026 0 -0.0013517)
(0.0104001 0 -0.0011791)
(0.0109334 0 -0.00099575)
(0.0113765 0 -0.000808543)
(0.0117294 0 -0.000623681)
(0.0119945 0 -0.000446421)
(0.0121765 0 -0.000280948)
(0.0122819 0 -0.000130329)
(0.0123183 0 3.47208e-06)
(0.0122943 0 0.000119508)
(0.0122182 0 0.000217619)
(0.0120987 0 0.000298217)
(0.011944 0 0.000362174)
(0.0117619 0 0.000410711)
(0.0115595 0 0.00044529)
(0.0113431 0 0.000467515)
(0.0111183 0 0.000479045)
(0.0108899 0 0.000481526)
(0.0106618 0 0.00047653)
(0.0104374 0 0.000465522)
(0.0102192 0 0.00044983)
(0.0100092 0 0.000430628)
(0.00980884 0 0.000408938)
(0.00961918 0 0.000385625)
(0.00944082 0 0.000361411)
(0.00927405 0 0.000336882)
(0.00911892 0 0.000312507)
(0.00897529 0 0.000288647)
(0.00884285 0 0.000265572)
(0.00872119 0 0.000243476)
(0.0086098 0 0.000222489)
(0.00850815 0 0.00020269)
(0.00841566 0 0.000184115)
(0.00833175 0 0.000166768)
(0.00825584 0 0.000150626)
(0.00818736 0 0.000135648)
(0.00812577 0 0.000121781)
(0.00807056 0 0.000108959)
(0.00802125 0 9.71104e-05)
(0.00797739 0 8.61611e-05)
(0.00793857 0 7.60334e-05)
(0.00790442 0 6.66497e-05)
(0.0078746 0 5.79324e-05)
(0.00784882 0 4.98051e-05)
(0.0078268 0 4.21927e-05)
(0.00780832 0 3.50218e-05)
(0.0077932 0 2.82203e-05)
(0.00778126 0 2.17178e-05)
(0.00777238 0 1.54452e-05)
(0.00776647 0 9.33426e-06)
(0.00776347 0 3.31829e-06)
(0.00776335 0 -2.66904e-06)
(0.00776611 0 -8.69485e-06)
(0.00777179 0 -1.48291e-05)
(0.00778045 0 -2.11462e-05)
(0.00779221 0 -2.77257e-05)
(0.00780721 0 -3.46529e-05)
(0.00782564 0 -4.20204e-05)
(0.00784772 0 -4.99295e-05)
(0.00787375 0 -5.8492e-05)
(0.00790407 0 -6.78327e-05)
(0.00793907 0 -7.80921e-05)
(0.00797923 0 -8.94296e-05)
(0.00802509 0 -0.000102028)
(0.00807731 0 -0.000116098)
(0.00813662 0 -0.000131884)
(0.0082039 0 -0.000149673)
(0.00828016 0 -0.000169803)
(0.00836658 0 -0.000192676)
(0.00846455 0 -0.000218769)
(0.00857568 0 -0.000248659)
(0.00870189 0 -0.000283045)
(0.00884542 0 -0.000322777)
(0.00900896 0 -0.000368905)
(0.0091957 0 -0.000422727)
(0.00940951 0 -0.000485871)
(0.00965505 0 -0.000560393)
(0.00993805 0 -0.00064892)
(0.0102656 0 -0.000754852)
(0.0106466 0 -0.000882664)
(0.0110924 0 -0.00103837)
(0.0116178 0 -0.00123027)
(0.0122429 0 -0.00147032)
(0.0129954 0 -0.00177663)
(0.0139153 0 -0.00217858)
(0.0150619 0 -0.00272768)
(0.0165235 0 -0.0035207)
(0.018426 0 -0.00474395)
(0.0209442 0 -0.00675317)
(0.0242945 0 -0.0102551)
(0.0283677 0 -0.016757)
(0.0308989 0 -0.0288937)
(0.0263512 0 -0.0464862)
(0.0135522 0 -0.05761)
(-0.00319718 0 -0.0585936)
(-0.016877 0 -0.0481544)
(-0.0216746 0 -0.0300033)
(-0.0190249 0 -0.0173246)
(-0.0147785 0 -0.0104483)
(-0.0113075 0 -0.00671224)
(-0.00872712 0 -0.00457395)
(-0.0068088 0 -0.00329352)
(-0.00536447 0 -0.00248643)
(-0.00425535 0 -0.00194585)
(-0.00338295 0 -0.00156243)
(-0.00268127 0 -0.00127742)
(-0.00210681 0 -0.00105728)
(-0.00163054 0 -0.000881365)
(-0.00123267 0 -0.00073612)
(-0.000899659 0 -0.000612225)
(-0.00062166 0 -0.000503217)
(-0.000389808 0 -0.000404762)
(-0.000197662 0 -0.000313837)
(-9.17273e-05 0 -0.000229143)
(-9.70891e-05 0 0.000383648)
(-0.000202658 0 0.000449232)
(-0.000372592 0 0.000474939)
(-0.00054002 0 0.000463805)
(-0.000694997 0 0.000418606)
(-0.000828518 0 0.00034135)
(-0.000930111 0 0.000233579)
(-0.000989257 0 9.65342e-05)
(-0.000995777 0 -6.86584e-05)
(-0.000939799 0 -0.000260713)
(-0.000811844 0 -0.00047786)
(-0.000603047 0 -0.000717468)
(-0.000305575 0 -0.000975687)
(8.68664e-05 0 -0.00124715)
(0.000578452 0 -0.00152478)
(0.00117072 0 -0.0017996)
(0.00186112 0 -0.00206049)
(0.00264283 0 -0.00229539)
(0.00350461 0 -0.00249263)
(0.00443066 0 -0.00264173)
(0.00540155 0 -0.0027344)
(0.00639526 0 -0.00276547)
(0.00738853 0 -0.00273332)
(0.00835832 0 -0.00263997)
(0.00928316 0 -0.0024908)
(0.0101443 0 -0.00229382)
(0.0109264 0 -0.00205892)
(0.0116182 0 -0.00179696)
(0.0122124 0 -0.00151892)
(0.0127056 0 -0.00123521)
(0.013098 0 -0.000955167)
(0.0133926 0 -0.00068668)
(0.0135951 0 -0.000436009)
(0.0137128 0 -0.000207744)
(0.0137543 0 -4.8581e-06)
(0.0137292 0 0.000171192)
(0.0136468 0 0.000320146)
(0.0135167 0 0.000442625)
(0.0133482 0 0.000539941)
(0.0131497 0 0.000613934)
(0.0129291 0 0.000666808)
(0.0126933 0 0.000700981)
(0.0124485 0 0.000718958)
(0.0121999 0 0.000723221)
(0.0119518 0 0.000716146)
(0.0117078 0 0.000699946)
(0.0114707 0 0.000676625)
(0.0112426 0 0.000647964)
(0.0110251 0 0.000615506)
(0.0108193 0 0.000580562)
(0.0106259 0 0.000544226)
(0.0104451 0 0.000507388)
(0.010277 0 0.000470756)
(0.0101214 0 0.000434879)
(0.00997795 0 0.000400169)
(0.00984622 0 0.000366922)
(0.00972565 0 0.000335334)
(0.00961564 0 0.000305527)
(0.00951557 0 0.000277557)
(0.00942479 0 0.00025143)
(0.00934267 0 0.000227115)
(0.0092686 0 0.00020455)
(0.00920199 0 0.000183654)
(0.00914229 0 0.000164329)
(0.00908896 0 0.00014647)
(0.00904154 0 0.000129963)
(0.00899956 0 0.000114692)
(0.00896263 0 0.00010054)
(0.00893039 0 8.73914e-05)
(0.00890251 0 7.51303e-05)
(0.00887871 0 6.36442e-05)
(0.00885873 0 5.28225e-05)
(0.00884237 0 4.25569e-05)
(0.00882947 0 3.27416e-05)
(0.00881987 0 2.32724e-05)
(0.00881348 0 1.40468e-05)
(0.00881023 0 4.96408e-06)
(0.00881009 0 -4.07614e-06)
(0.00881307 0 -1.31753e-05)
(0.0088192 0 -2.24389e-05)
(0.00882855 0 -3.19788e-05)
(0.00884124 0 -4.19143e-05)
(0.00885743 0 -5.23737e-05)
(0.00887731 0 -6.34957e-05)
(0.00890113 0 -7.54317e-05)
(0.0089292 0 -8.83492e-05)
(0.00896187 0 -0.000102435)
(0.00899957 0 -0.000117897)
(0.00904279 0 -0.000134975)
(0.00909212 0 -0.00015394)
(0.00914823 0 -0.000175104)
(0.0092119 0 -0.000198831)
(0.00928404 0 -0.000225545)
(0.0093657 0 -0.000255746)
(0.0094581 0 -0.000290023)
(0.00956267 0 -0.000329082)
(0.00968106 0 -0.000373767)
(0.00981522 0 -0.000425103)
(0.00996743 0 -0.000484334)
(0.0101404 0 -0.00055299)
(0.0103373 0 -0.000632966)
(0.010562 0 -0.000726635)
(0.010819 0 -0.000836997)
(0.011114 0 -0.000967895)
(0.0114538 0 -0.00112433)
(0.0118469 0 -0.00131293)
(0.0123041 0 -0.00154266)
(0.0128389 0 -0.00182605)
(0.0134694 0 -0.00218113)
(0.0142191 0 -0.00263496)
(0.0151191 0 -0.00322982)
(0.01621 0 -0.00403441)
(0.0175408 0 -0.00516369)
(0.0191589 0 -0.00681106)
(0.0210811 0 -0.0092956)
(0.0232113 0 -0.0131285)
(0.0250673 0 -0.0190683)
(0.0251109 0 -0.0278304)
(0.0206971 0 -0.0382676)
(0.0114007 0 -0.0451842)
(-0.000336817 0 -0.0458553)
(-0.0102713 0 -0.0394817)
(-0.0149265 0 -0.0288574)
(-0.0149057 0 -0.0197282)
(-0.0129626 0 -0.0134488)
(-0.0107241 0 -0.00936005)
(-0.00871031 0 -0.00670801)
(-0.00702954 0 -0.00496609)
(-0.00566456 0 -0.00379379)
(-0.00456214 0 -0.00297853)
(-0.00366645 0 -0.00239111)
(-0.00293106 0 -0.00195305)
(-0.0023207 0 -0.00161551)
(-0.00180949 0 -0.00134705)
(-0.00137873 0 -0.00112666)
(-0.00101502 0 -0.00093989)
(-0.000708323 0 -0.000776766)
(-0.000449162 0 -0.000630577)
(-0.000230472 0 -0.000497011)
(-0.000107604 0 -0.000374603)
(-0.000106604 0 0.000525932)
(-0.000222452 0 0.000613401)
(-0.000409611 0 0.000647403)
(-0.000594672 0 0.000631928)
(-0.000767094 0 0.000570528)
(-0.000917307 0 0.000465757)
(-0.00103404 0 0.000319502)
(-0.00110586 0 0.000133234)
(-0.00112158 0 -9.17143e-05)
(-0.00107019 0 -0.000353775)
(-0.000940944 0 -0.000650705)
(-0.000723577 0 -0.000979079)
(-0.000408807 0 -0.00133377)
(1.11008e-05 0 -0.00170755)
(0.000541622 0 -0.00209071)
(0.00118537 0 -0.00247089)
(0.00194044 0 -0.00283266)
(0.0027997 0 -0.00315894)
(0.0037508 0 -0.00343321)
(0.00477573 0 -0.00364058)
(0.00585209 0 -0.00376934)
(0.00695437 0 -0.00381223)
(0.00805563 0 -0.00376714)
(0.00912935 0 -0.00363711)
(0.0101511 0 -0.00342989)
(0.0110997 0 -0.00315692)
(0.0119584 0 -0.00283213)
(0.012715 0 -0.00247068)
(0.0133621 0 -0.00208779)
(0.0138966 0 -0.0016978)
(0.0143195 0 -0.00131346)
(0.0146349 0 -0.000945481)
(0.0148495 0 -0.000602292)
(0.0149719 0 -0.000290045)
(0.015012 0 -1.27061e-05)
(0.0149803 0 0.000227797)
(0.0148874 0 0.000431153)
(0.0147438 0 0.00059826)
(0.0145596 0 0.000730955)
(0.0143439 0 0.00083179)
(0.0141054 0 0.000903804)
(0.0138514 0 0.000950321)
(0.0135885 0 0.000974776)
(0.0133222 0 0.000980564)
(0.0130571 0 0.000970933)
(0.012797 0 0.000948902)
(0.0125447 0 0.000917205)
(0.0123024 0 0.000878264)
(0.0120718 0 0.000834181)
(0.0118539 0 0.000786739)
(0.0116494 0 0.000737423)
(0.0114584 0 0.000687439)
(0.0112811 0 0.000637749)
(0.0111171 0 0.000589096)
(0.0109661 0 0.000542036)
(0.0108275 0 0.000496968)
(0.0107007 0 0.00045416)
(0.0105851 0 0.000413772)
(0.0104801 0 0.000375879)
(0.0103848 0 0.000340487)
(0.0102986 0 0.000307553)
(0.010221 0 0.000276994)
(0.0101511 0 0.000248696)
(0.0100886 0 0.000222527)
(0.0100327 0 0.000198344)
(0.00998302 0 0.000175991)
(0.00993906 0 0.000155313)
(0.00990038 0 0.000136149)
(0.00986662 0 0.000118343)
(0.00983742 0 0.000101739)
(0.00981249 0 8.61832e-05)
(0.00979157 0 7.15272e-05)
(0.00977443 0 5.76245e-05)
(0.0097609 0 4.43317e-05)
(0.00975083 0 3.15083e-05)
(0.00974411 0 1.90158e-05)
(0.00974067 0 6.71781e-06)
(0.00974047 0 -5.52187e-06)
(0.00974352 0 -1.78408e-05)
(0.00974985 0 -3.03816e-05)
(0.00975955 0 -4.32948e-05)
(0.00977271 0 -5.6741e-05)
(0.00978951 0 -7.08922e-05)
(0.00981015 0 -8.59342e-05)
(0.00983487 0 -0.00010207)
(0.00986399 0 -0.000119523)
(0.00989788 0 -0.000138541)
(0.00993694 0 -0.000159405)
(0.0099817 0 -0.000182429)
(0.0100327 0 -0.000207974)
(0.0100907 0 -0.000236453)
(0.0101564 0 -0.000268347)
(0.0102307 0 -0.000304212)
(0.0103147 0 -0.000344704)
(0.0104096 0 -0.000390597)
(0.0105167 0 -0.000442807)
(0.0106377 0 -0.000502436)
(0.0107743 0 -0.000570807)
(0.0109289 0 -0.00064953)
(0.0111039 0 -0.000740571)
(0.0113023 0 -0.000846364)
(0.0115277 0 -0.000969938)
(0.0117841 0 -0.00111512)
(0.0120766 0 -0.00128678)
(0.012411 0 -0.00149126)
(0.0127946 0 -0.00173689)
(0.0132362 0 -0.00203489)
(0.0137462 0 -0.00240067)
(0.0143376 0 -0.00285598)
(0.0150257 0 -0.00343221)
(0.0158275 0 -0.00417581)
(0.0167595 0 -0.00515653)
(0.0178303 0 -0.00647961)
(0.0190234 0 -0.00830122)
(0.0202625 0 -0.0108427)
(0.021344 0 -0.0143911)
(0.0217997 0 -0.0192439)
(0.0206866 0 -0.0254432)
(0.0167599 0 -0.032005)
(0.00993709 0 -0.0363504)
(0.00169879 0 -0.0368095)
(-0.00557624 0 -0.0329006)
(-0.00970741 0 -0.0263215)
(-0.0109019 0 -0.0198966)
(-0.0104247 0 -0.0147777)
(-0.00927003 0 -0.0109969)
(-0.00794387 0 -0.00828232)
(-0.00667077 0 -0.00634719)
(-0.00553586 0 -0.00495944)
(-0.00455708 0 -0.00394923)
(-0.00372371 0 -0.00319877)
(-0.00301605 0 -0.00262822)
(-0.00241404 0 -0.00218348)
(-0.00190025 0 -0.00182748)
(-0.00146068 0 -0.0015344)
(-0.00108456 0 -0.00128597)
(-0.000763327 0 -0.00106931)
(-0.000488178 0 -0.000875589)
(-0.00025252 0 -0.00069912)
(-0.000118619 0 -0.000537512)
(-0.000117177 0 0.00068177)
(-0.000244691 0 0.000793954)
(-0.000451602 0 0.000837947)
(-0.000657521 0 0.000818956)
(-0.000851391 0 0.000741428)
(-0.00102317 0 0.000608449)
(-0.00116083 0 0.000422181)
(-0.00125203 0 0.000184208)
(-0.00128451 0 -0.000104086)
(-0.00124598 0 -0.00044102)
(-0.0011242 0 -0.000824039)
(-0.000907227 0 -0.00124906)
(-0.000583913 0 -0.00170976)
(-0.000144629 0 -0.00219696)
(0.000417894 0 -0.00269818)
(0.00110782 0 -0.00319729)
(0.00192447 0 -0.00367397)
(0.00286052 0 -0.00410497)
(0.00390248 0 -0.00446784)
(0.0050297 0 -0.00474223)
(0.00621608 0 -0.00491226)
(0.0074317 0 -0.00496822)
(0.00864511 0 -0.00490748)
(0.00982554 0 -0.00473455)
(0.010945 0 -0.00446023)
(0.0119797 0 -0.00410019)
(0.0129113 0 -0.00367327)
(0.013727 0 -0.0031997)
(0.0144194 0 -0.00269963)
(0.0149865 0 -0.0021918)
(0.0154303 0 -0.00169271)
(0.0157566 0 -0.00121609)
(0.0159736 0 -0.000772614)
(0.0160915 0 -0.000369976)
(0.0161217 0 -1.30479e-05)
(0.0160761 0 0.000295887)
(0.0159664 0 0.000556578)
(0.0158042 0 0.00077032)
(0.0156004 0 0.000939612)
(0.0153649 0 0.00106785)
(0.0151068 0 0.00115904)
(0.014834 0 0.00121753)
(0.0145533 0 0.00124779)
(0.0142704 0 0.00125422)
(0.01399 0 0.00124101)
(0.013716 0 0.00121204)
(0.0134511 0 0.00117084)
(0.0131975 0 0.0011205)
(0.0129568 0 0.00106371)
(0.01273 0 0.00100274)
(0.0125175 0 0.000939469)
(0.0123196 0 0.000875441)
(0.0121362 0 0.000811867)
(0.0119668 0 0.000749684)
(0.0118111 0 0.000689592)
(0.0116684 0 0.000632089)
(0.0115381 0 0.000577506)
(0.0114194 0 0.00052604)
(0.0113116 0 0.000477779)
(0.0112139 0 0.000432725)
(0.0111257 0 0.000390817)
(0.0110462 0 0.000351944)
(0.0109747 0 0.000315959)
(0.0109108 0 0.000282692)
(0.0108537 0 0.000251954)
(0.0108029 0 0.000223549)
(0.010758 0 0.000197276)
(0.0107185 0 0.000172931)
(0.010684 0 0.000150313)
(0.0106542 0 0.000129223)
(0.0106287 0 0.000109468)
(0.0106074 0 9.08574e-05)
(0.0105899 0 7.32055e-05)
(0.010576 0 5.63307e-05)
(0.0105657 0 4.00548e-05)
(0.0105587 0 2.42024e-05)
(0.0105552 0 8.60011e-06)
(0.0105548 0 -6.92495e-06)
(0.0105578 0 -2.25476e-05)
(0.0105641 0 -3.84484e-05)
(0.0105738 0 -5.48171e-05)
(0.010587 0 -7.18556e-05)
(0.0106039 0 -8.97797e-05)
(0.0106246 0 -0.000108822)
(0.0106495 0 -0.000129236)
(0.0106787 0 -0.000151301)
(0.0107127 0 -0.000175327)
(0.0107519 0 -0.000201658)
(0.0107968 0 -0.000230688)
(0.0108479 0 -0.00026286)
(0.0109058 0 -0.000298684)
(0.0109714 0 -0.000338749)
(0.0110455 0 -0.000383738)
(0.011129 0 -0.000434448)
(0.011223 0 -0.000491818)
(0.011329 0 -0.000556959)
(0.0114482 0 -0.000631194)
(0.0115825 0 -0.000716111)
(0.0117337 0 -0.000813626)
(0.0119042 0 -0.000926075)
(0.0120964 0 -0.00105632)
(0.0123134 0 -0.00120792)
(0.0125586 0 -0.00138531)
(0.012836 0 -0.00159412)
(0.0131501 0 -0.00184157)
(0.0135063 0 -0.00213704)
(0.0139104 0 -0.00249293)
(0.0143691 0 -0.00292587)
(0.0148891 0 -0.00345851)
(0.0154765 0 -0.00412214)
(0.0161348 0 -0.00496028)
(0.01686 0 -0.00603348)
(0.0176327 0 -0.00742456)
(0.0184015 0 -0.00924224)
(0.0190573 0 -0.0116174)
(0.0193931 0 -0.0146804)
(0.01905 0 -0.018496)
(0.0174771 0 -0.0228979)
(0.0141073 0 -0.0271719)
(0.00900505 0 -0.0299475)
(0.00308932 0 -0.0302556)
(-0.00231442 0 -0.0278313)
(-0.00585571 0 -0.0236186)
(-0.00752513 0 -0.0190951)
(-0.00788549 0 -0.0150896)
(-0.00750925 0 -0.0118363)
(-0.0067831 0 -0.00930301)
(-0.00593449 0 -0.00736954)
(-0.00508513 0 -0.00590306)
(-0.00429234 0 -0.0047871)
(-0.00357753 0 -0.00392948)
(-0.0029441 0 -0.00326079)
(-0.00238747 0 -0.0027299)
(-0.00190025 0 -0.00229938)
(-0.00147484 0 -0.00194178)
(-0.00110457 0 -0.00163695)
(-0.000783531 0 -0.00137016)
(-0.000504615 0 -0.001131)
(-0.000262519 0 -0.000912552)
(-0.000123807 0 -0.000711251)
(-0.00012943 0 0.000853623)
(-0.00027057 0 0.000993817)
(-0.000500624 0 0.00105014)
(-0.000731448 0 0.00102922)
(-0.000951577 0 0.000936444)
(-0.00115059 0 0.000775414)
(-0.00131574 0 0.000548448)
(-0.00143374 0 0.000257066)
(-0.00149115 0 -9.75189e-05)
(-0.00147422 0 -0.000513764)
(-0.00136897 0 -0.000989057)
(-0.00116136 0 -0.00151889)
(-0.000837942 0 -0.00209586)
(-0.000386629 0 -0.00270889)
(0.000202205 0 -0.00334251)
(0.000934776 0 -0.0039764)
(0.00181232 0 -0.00458472)
(0.00282746 0 -0.00513654)
(0.0039655 0 -0.00560195)
(0.00520253 0 -0.00595381)
(0.00650771 0 -0.00617103)
(0.00784562 0 -0.00624097)
(0.0091791 0 -0.00616064)
(0.0104722 0 -0.00593657)
(0.0116926 0 -0.00558358)
(0.0128138 0 -0.0051227)
(0.0138157 0 -0.00457878)
(0.0146851 0 -0.00397817)
(0.0154154 0 -0.0033467)
(0.0160058 0 -0.0027081)
(0.0164602 0 -0.002083)
(0.0167863 0 -0.00148828)
(0.0169948 0 -0.000936901)
(0.0170976 0 -0.000437981)
(0.0171082 0 2.87336e-06)
(0.0170397 0 0.000383223)
(0.0169055 0 0.000703058)
(0.0167181 0 0.000964259)
(0.0164895 0 0.00117017)
(0.0162301 0 0.00132522)
(0.0159496 0 0.00143454)
(0.0156563 0 0.00150365)
(0.015357 0 0.00153817)
(0.0150575 0 0.0015436)
(0.0147627 0 0.00152517)
(0.014476 0 0.00148768)
(0.0142003 0 0.00143546)
(0.0139377 0 0.00137231)
(0.0136893 0 0.00130153)
(0.0134561 0 0.00122587)
(0.0132385 0 0.00114763)
(0.0130363 0 0.00106866)
(0.0128494 0 0.000990416)
(0.0126773 0 0.000914029)
(0.0125195 0 0.000840326)
(0.0123751 0 0.000769893)
(0.0122435 0 0.000703117)
(0.0121238 0 0.000640219)
(0.0120152 0 0.000581292)
(0.011917 0 0.000526325)
(0.0118284 0 0.000475233)
(0.0117487 0 0.000427871)
(0.0116771 0 0.000384052)
(0.011613 0 0.000343561)
(0.0115559 0 0.000306166)
(0.0115051 0 0.000271622)
(0.0114602 0 0.000239681)
(0.0114207 0 0.000210092)
(0.0113862 0 0.00018261)
(0.0113564 0 0.000156992)
(0.011331 0 0.000133001)
(0.0113096 0 0.000110405)
(0.0112921 0 8.89793e-05)
(0.0112782 0 6.85025e-05)
(0.0112678 0 4.87587e-05)
(0.0112608 0 2.95354e-05)
(0.011257 0 1.06221e-05)
(0.0112566 0 -8.19107e-06)
(0.0112594 0 -2.71163e-05)
(0.0112654 0 -4.63716e-05)
(0.0112748 0 -6.61857e-05)
(0.0112877 0 -8.68006e-05)
(0.0113041 0 -0.000108474)
(0.0113243 0 -0.000131485)
(0.0113486 0 -0.000156135)
(0.0113771 0 -0.000182754)
(0.0114103 0 -0.000211711)
(0.0114485 0 -0.000243413)
(0.0114921 0 -0.000278322)
(0.0115418 0 -0.000316961)
(0.011598 0 -0.000359924)
(0.0116615 0 -0.000407899)
(0.0117331 0 -0.000461676)
(0.0118136 0 -0.000522179)
(0.011904 0 -0.000590486)
(0.0120055 0 -0.000667868)
(0.0121193 0 -0.000755831)
(0.0122469 0 -0.000856169)
(0.01239 0 -0.000971036)
(0.0125502 0 -0.00110303)
(0.0127298 0 -0.00125533)
(0.012931 0 -0.00143182)
(0.0131564 0 -0.00163732)
(0.0134087 0 -0.00187785)
(0.013691 0 -0.00216102)
(0.0140064 0 -0.00249653)
(0.0143577 0 -0.00289689)
(0.0147476 0 -0.00337836)
(0.0151771 0 -0.00396227)
(0.0156444 0 -0.00467661)
(0.0161426 0 -0.00555798)
(0.0166544 0 -0.00665344)
(0.0171454 0 -0.00802126)
(0.0175523 0 -0.0097283)
(0.0177669 0 -0.0118398)
(0.0176181 0 -0.0143946)
(0.0168579 0 -0.0173548)
(0.0151765 0 -0.020516)
(0.0123281 0 -0.0233848)
(0.00842305 0 -0.0252016)
(0.00403231 0 -0.0254075)
(-4.29095e-05 0 -0.0238804)
(-0.00304574 0 -0.0210998)
(-0.00481765 0 -0.0178868)
(-0.00561254 0 -0.0148011)
(-0.00574412 0 -0.0121014)
(-0.00547697 0 -0.00985681)
(-0.00499869 0 -0.00804338)
(-0.00442972 0 -0.00659932)
(-0.00384125 0 -0.00545474)
(-0.00327198 0 -0.0045453)
(-0.00274081 0 -0.00381696)
(-0.00225533 0 -0.00322631)
(-0.00181715 0 -0.00273933)
(-0.00142502 0 -0.00232968)
(-0.00107675 0 -0.00197711)
(-0.000769571 0 -0.00166626)
(-0.000498684 0 -0.00138579)
(-0.000260574 0 -0.0011279)
(-0.000123229 0 -0.000887819)
(-0.000143631 0 0.00104414)
(-0.00030054 0 0.00121615)
(-0.000557395 0 0.00128779)
(-0.000817389 0 0.00126726)
(-0.00106878 0 0.00116097)
(-0.00130089 0 0.000972927)
(-0.00150028 0 0.000705463)
(-0.00165267 0 0.000359784)
(-0.00174333 0 -6.33758e-05)
(-0.00175684 0 -0.000562948)
(-0.00167715 0 -0.00113662)
(-0.00148773 0 -0.00177979)
(-0.00117226 0 -0.00248422)
(-0.000715607 0 -0.00323698)
(-0.000105134 0 -0.00401945)
(0.000668006 0 -0.00480664)
(0.0016076 0 -0.00556642)
(0.00270663 0 -0.00625845)
(0.00394896 0 -0.00684316)
(0.00530665 0 -0.00728479)
(0.00674286 0 -0.0075558)
(0.00821519 0 -0.00764006)
(0.00967938 0 -0.00753442)
(0.0110931 0 -0.00724835)
(0.0124193 0 -0.006802)
(0.013628 0 -0.00622325)
(0.0146976 0 -0.00554442)
(0.0156151 0 -0.00479917)
(0.016375 0 -0.00401997)
(0.0169784 0 -0.0032362)
(0.0174319 0 -0.00247294)
(0.0177459 0 -0.00175038)
(0.0179337 0 -0.00108367)
(0.0180098 0 -0.000483173)
(0.0179897 0 4.50582e-05)
(0.0178886 0 0.000498702)
(0.0177211 0 0.000878246)
(0.0175013 0 0.00118642)
(0.0172417 0 0.00142766)
(0.0169538 0 0.00160766)
(0.0166475 0 0.00173289)
(0.0163313 0 0.00181019)
(0.0160121 0 0.00184649)
(0.0156957 0 0.00184849)
(0.0153867 0 0.00182252)
(0.0150884 0 0.00177436)
(0.0148034 0 0.00170918)
(0.0145333 0 0.00163151)
(0.0142794 0 0.00154523)
(0.0140421 0 0.0014536)
(0.0138215 0 0.0013593)
(0.0136175 0 0.00126447)
(0.0134296 0 0.00117082)
(0.0132571 0 0.00107962)
(0.0130994 0 0.000991825)
(0.0129555 0 0.000908085)
(0.0128246 0 0.000828824)
(0.0127059 0 0.000754276)
(0.0125984 0 0.000684524)
(0.0125014 0 0.000619535)
(0.0124139 0 0.000559189)
(0.0123354 0 0.000503298)
(0.0122649 0 0.000451629)
(0.0122019 0 0.000403919)
(0.0121458 0 0.000359885)
(0.0120959 0 0.00031923)
(0.0120519 0 0.000281658)
(0.0120132 0 0.000246869)
(0.0119794 0 0.000214571)
(0.0119502 0 0.000184476)
(0.0119252 0 0.000156302)
(0.0119042 0 0.000129777)
(0.011887 0 0.000104636)
(0.0118733 0 8.06183e-05)
(0.011863 0 5.74709e-05)
(0.011856 0 3.49443e-05)
(0.0118522 0 1.27918e-05)
(0.0118515 0 -9.23285e-06)
(0.011854 0 -3.13782e-05)
(0.0118596 0 -5.38988e-05)
(0.0118684 0 -7.70603e-05)
(0.0118806 0 -0.000101143)
(0.0118962 0 -0.000126445)
(0.0119154 0 -0.000153286)
(0.0119384 0 -0.000182012)
(0.0119655 0 -0.000213003)
(0.0119969 0 -0.000246678)
(0.0120331 0 -0.000283501)
(0.0120744 0 -0.000323994)
(0.0121214 0 -0.000368748)
(0.0121744 0 -0.000418433)
(0.0122342 0 -0.000473815)
(0.0123014 0 -0.000535777)
(0.0123768 0 -0.000605342)
(0.0124611 0 -0.000683697)
(0.0125554 0 -0.000772234)
(0.0126607 0 -0.000872592)
(0.0127781 0 -0.000986708)
(0.0129089 0 -0.00111689)
(0.0130545 0 -0.0012659)
(0.0132164 0 -0.00143706)