/*--------------------------------*- C++ -*----------------------------------*\
  =========                 |
  \\      /  F ield         | OpenFOAM: The Open Source CFD Toolbox
   \\    /   O peration     | Website:  https://openfoam.org
    \\  /    A nd           | Version:  13
     \\/     M anipulation  |
\*---------------------------------------------------------------------------*/
FoamFile
{
    format      ascii;
    class       volScalarField;
    location    "439.831886";
    object      T;
}
// * * * * * * * * * * * * * * * * * * * * * * * * * * * * * * * * * * * * * //

dimensions      [0 0 0 1 0 0 0];

internalField   nonuniform List<scalar> 
5712
(
483.084
483.407
483.943
484.442
485.251
485.759
487.087
487.499
486.741
487.22
485.303
485.786
484.262
484.718
483.485
483.83
485.635
486.27
486.502
487.385
487.865
488.683
488.664
489.709
481.927
480.033
482.273
480.505
482.733
480.92
483.275
481.564
484.58
483.583
485.487
484.225
482.015
483.08
487.59
489.196
488.45
489.653
489.623
490.979
490.649
491.684
485.675
487.348
486.622
487.893
484.159
485.78
477.871
476.607
478.779
477.469
478.763
477.172
479.832
478.374
480.069
477.91
481.697
479.697
482.967
480.991
484.414
482.403
486.081
486.359
487.469
487.602
489.032
489.391
490.14
490.502
484.907
484.522
483.277
483.202
488.652
488.64
489.729
489.509
491.148
491.445
492.101
492.257
486.249
485.624
487.446
486.521
482.405
479.995
481.487
478.784
480.646
478.18
480.108
477.302
483.864
481.517
482.626
479.972
485.159
482.844
483.53
480.915
474.838
472.051
474.381
471.614
475.663
473.068
474.827
472.187
477.066
475.068
475.594
473.418
484.116
487.593
480.972
478.611
476.089
487.099
483.429
479.689
477.167
474.44
487.998
484.721
481.561
478.59
475.713
469.484
468.228
468.085
466.963
470.769
469.325
468.951
467.739
473.014
471.391
470.443
469.001
486.282
484.954
482.279
480.481
478.602
476.74
475.677
473.835
471.858
470.02
487.386
486.3
483.724
481.839
480.303
478.166
476.924
474.628
472.712
470.313
485.426
483.318
486.964
485.093
489.026
488.394
490.404
490.043
483.334
480.869
481.834
479.216
488.277
486.4
489.135
487.347
491.524
491.185
492.338
492.09
484.703
482.19
485.565
483.112
479.233
476.273
474.211
470.647
478.025
474.915
473.397
469.897
480.349
477.481
474.989
471.484
481.404
478.508
476.085
472.764
467.845
467.323
466.348
467.575
467.374
466.488
468.668
468.012
466.972
468.195
467.939
466.979
470.368
469.487
468.312
469.144
468.738
467.653
483.325
481.476
479.53
478.568
476.966
475.269
474.976
473.608
472.131
472.398
471.255
469.853
469.905
469.328
468.049
484.782
482.704
480.498
479.343
477.192
475.036
475.644
473.755
471.843
472.676
471.264
469.591
469.975
469.214
467.733
491.846
492.507
492.448
493.305
490.047
490.864
490.736
491.753
492.239
493.64
492.405
493.711
492.632
493.884
492.926
494.103
493.876
493.296
494.228
493.546
494.129
494.611
493.995
494.801
492.589
493.485
494.272
495.035
494.792
495.524
494.898
495.647
495.052
496.307
494.823
496.004
495.224
496.521
495.176
496.377
495.381
496.801
495.716
497.017
495.972
497.121
496.617
497.57
493.391
493.972
494.18
494.835
491.495
492
492.416
492.967
495.421
496.202
494.727
495.442
494.954
495.585
495.728
496.252
493.292
493.805
494.145
494.545
496.104
496.868
496.813
497.461
496.465
497.597
497.11
497.796
495.901
497.113
496.443
497.235
497.026
498.03
497.698
498.284
497.646
498.494
498.219
498.711
494.996
494.381
496.167
495.523
495.004
494.353
496.249
495.581
495.017
494.429
496.383
495.781
492.803
490.561
494.221
495.342
496.547
490.106
492.322
493.646
494.745
496.018
490.977
493.158
494.731
495.799
496.682
493.321
491.867
494.447
493.032
493.392
492.004
494.612
493.25
493.589
492.274
494.932
493.657
489.503
488.393
491.85
490.711
493.202
492.028
494.24
493.04
495.439
494.231
490.596
489.933
492.83
492.157
494.356
493.552
495.346
494.361
496.12
494.899
494.088
493.836
494.97
494.959
492.052
491.865
493.106
493.23
496.177
495.859
495.416
494.898
495.656
495.837
496.32
496.574
493.935
494.243
494.678
495.074
496.796
496.646
497.392
497.307
496.93
496.288
497.297
496.302
496.233
495.417
496.75
495.624
497.506
497.019
497.775
496.904
497.998
497.576
498.206
497.448
489.897
487.957
486.149
490.601
488.405
486.587
490.154
488.189
486.337
490.914
488.699
486.801
490.532
488.6
486.717
491.422
489.099
487.071
486.897
485.042
483.061
489.171
487.238
485.202
490.455
488.431
486.352
491.365
489.34
487.323
491.977
489.529
487.317
488.729
486.71
484.456
490.886
488.815
486.538
492.093
489.89
487.537
492.641
490.319
487.941
492.531
489.959
487.523
496.851
496.029
493.82
489.756
496.491
495.606
493.323
489.226
497.011
496.156
493.939
489.836
496.785
495.841
493.533
489.421
497.223
496.319
494.193
490.209
497.325
496.305
494.032
489.961
497.272
496.132
493.697
489.524
497.522
496.244
493.706
489.502
497.73
496.644
494.422
490.383
497.657
496.497
494.465
490.832
497.368
496.399
494.394
490.649
497.255
496.216
494.332
490.912
498.028
496.826
494.425
490.235
498.01
496.743
494.587
490.865
498.334
497.018
494.529
490.357
498.322
496.958
494.735
491.026
496.778
496.052
494.045
490.221
496.254
495.649
493.941
490.602
496.823
496.073
494.094
490.294
496.276
495.642
493.945
490.636
496.888
496.091
494.176
490.486
496.386
495.683
493.982
490.713
496.906
496.047
494.229
490.754
496.49
495.713
494.031
490.853
496.856
495.929
494.194
491.01
495.452
494.954
493.422
491.043
494.556
494.127
492.566
490.342
495.551
495.009
493.465
491.09
494.66
494.179
492.597
490.364
495.733
495.106
493.524
491.131
494.841
494.267
492.644
490.405
495.997
495.253
493.635
491.229
495.088
494.395
492.722
490.463
496.34
495.447
493.769
491.336
495.379
494.544
492.805
490.521
497.007
495.829
493.957
491.428
496.137
494.984
493.083
490.712
496.678
495.636
493.858
491.374
495.757
494.761
492.942
490.619
497.307
496.01
494.05
491.474
496.491
495.197
493.214
490.815
497.596
496.198
494.178
491.577
496.818
495.404
493.351
490.924
483.6
478.663
474.485
471.117
468.558
483.296
478.417
474.254
470.892
468.337
483.637
478.682
474.498
471.126
468.566
483.352
478.454
474.282
470.915
468.358
483.707
478.713
474.518
471.142
468.58
483.575
478.642
474.455
471.08
468.518
483.457
478.519
474.327
470.95
468.389
483.535
478.575
474.369
470.983
468.417
483.754
478.74
474.534
471.153
468.59
483.51
478.388
474.172
470.794
468.234
483.697
478.653
474.447
471.07
468.508
483.43
478.305
474.094
470.72
468.162
483.762
478.742
474.53
471.144
468.579
483.486
478.353
474.13
470.749
468.189
483.843
478.796
474.568
471.175
468.605
483.509
478.351
474.116
470.73
468.167
483.566
478.55
474.363
470.996
468.439
483.208
478.125
473.939
470.58
468.03
483.576
478.544
474.352
470.982
468.425
483.218
478.125
473.936
470.575
468.025
483.571
478.508
474.309
470.937
468.38
483.216
478.106
473.912
470.55
467.999
483.468
478.356
474.15
470.778
468.223
483.157
478.033
473.835
470.471
467.921
483.254
478.128
473.923
470.555
468
462.331
461.552
462.688
461.893
463.342
462.459
464.177
463.14
465.017
463.811
466.357
464.965
465.676
464.312
467.027
465.688
467.724
466.508
453.864
444.726
437.159
431.368
427.501
454.001
444.802
437.151
431.325
427.394
454.025
444.811
437.212
431.407
427.535
454.146
444.865
437.203
431.341
427.419
454.349
444.992
437.33
431.494
427.609
454.459
445.038
437.316
431.424
427.489
454.789
445.252
437.503
431.623
427.718
454.862
445.276
437.474
431.541
427.588
455.305
445.583
437.732
431.795
427.864
455.299
445.556
437.668
431.688
427.714
456.422
446.397
438.335
432.27
428.282
456.312
446.29
438.211
432.121
428.104
455.862
445.98
438.019
432.017
428.056
455.777
445.892
437.908
431.876
427.881
456.982
446.826
438.666
432.539
428.522
456.912
446.749
438.568
432.414
428.367
457.554
447.27
439.013
432.82
428.771
457.565
447.24
438.96
432.733
428.642
493.891
492.604
491.493
492.963
491.099
491.294
491.348
491.614
490.916
491.284
489.211
489.64
488.331
488.811
489.612
490.015
490.118
490.394
490.222
490.436
492.832
493.164
489.267
487.747
487.292
487.134
488.517
489.224
487.472
489.522
485.972
483.741
489.121
488.477
486.744
488.653
487.88
487.744
490.685
490.802
489.836
490.171
490.619
490.987
490.56
489.995
488.057
488.41
489.138
489.499
492.19
492.68
491.813
492.208
491.613
491.481
490.429
489.109
490.459
495.147
496.343
496.859
496.81
496.18
494.875
495.864
496.306
496.15
495.327
490.395
490.924
490.979
490.531
489.555
488.827
489.306
489.316
488.835
487.85
488.387
488.886
488.918
488.456
487.483
488.21
488.687
488.696
488.217
487.234
489.629
490.143
490.186
489.73
488.753
491.741
493.279
494.096
494.274
493.835
490.145
491.797
492.658
492.837
492.319
491.299
492.45
493.068
493.045
492.297
488.429
490.008
490.798
490.904
490.261
486.125
487.732
488.528
488.638
487.997
490.517
491.337
491.67
491.433
490.568
490.107
491.143
491.664
491.565
490.775
488.313
489.304
489.791
489.669
488.872
489.949
490.669
490.913
490.611
489.715
489.256
490.061
490.383
490.141
489.278
489.01
489.704
489.927
489.611
488.711
492.991
494.302
494.974
495.053
494.517
492.372
493.338
493.801
493.664
492.852
491.162
491.908
492.175
491.887
490.993
491.436
492.115
492.317
491.981
491.06
491.99
492.777
493.078
492.816
491.935
492.281
492.987
493.211
492.89
491.975
491.762
492.368
492.496
492.101
491.148
491.186
491.785
491.909
491.512
490.56
489.227
489.813
489.931
489.534
488.592
489.548
490.094
490.17
489.74
488.779
490.374
491.028
491.209
490.858
489.935
490.697
491.306
491.442
491.055
490.112
494.431
495.657
496.217
496.205
495.617
494.279
495.214
495.622
495.441
494.601
493.661
494.747
495.287
495.237
494.554
493.627
494.439
494.755
494.503
493.621
492.95
493.694
493.951
493.655
492.751
493.019
493.949
494.381
494.224
493.399
491.641
492.261
492.403
492.019
491.073
490.256
490.807
490.886
490.456
489.491
491.707
492.366
492.548
492.195
491.265
493.098
492.401
493.037
492.261
494.797
493.982
494.834
494.114
492.967
492.872
492.213
492.355
494.767
494.717
494.009
494.22
491.31
489.569
490.688
489.018
491.298
489.72
490.562
489.017
490.516
491.177
490.881
491.324
489.953
489.29
491.29
490.494
491.625
490.747
493.022
492.18
493.495
492.674
489.625
488.772
490.124
489.142
488.366
487.337
487.985
486.624
487.512
486.219
488.09
486.469
487.472
486.039
488.364
486.159
487.932
485.978
487.075
485.077
485.893
483.858
492.321
491.871
491.951
491.438
494.557
494.407
494.163
494.028
489.841
488.559
490.172
489.01
491.366
490.915
490.615
490.269
493.592
493.546
492.897
492.962
489.248
488.017
488.433
487.318
487.661
485.223
485.598
482.845
487.885
485.256
485.985
483.08
487.09
484.761
485.071
482.4
486.228
483.934
484.346
481.726
487.87
487.072
486.353
485.091
487.994
487.342
486.123
484.914
488.225
487.88
485.711
484.716
492.422
494.731
490.172
487.774
484.755
494.813
492.616
490.37
487.843
484.239
494.609
492.13
489.293
486.217
483.071
485.774
485.198
481.771
480.607
486.384
485.807
482.008
480.846
487.29
486.818
482.294
481.126
494.777
494.469
492.435
492.067
490.004
489.632
487.091
486.606
481.917
480.67
494.61
494.294
491.885
491.106
488.805
487.814
485.262
484.075
480.529
479.02
491.234
489.873
490.848
489.454
494.332
494.223
493.998
493.967
487.378
485.382
487.849
485.957
490.512
488.905
489.87
488.151
493.598
493.472
493.023
492.831
487.035
484.79
486.33
483.946
483.261
480.689
478.076
474.834
483.966
481.47
479.033
475.998
482.717
480.049
477.261
473.92
482.205
479.357
476.81
473.527
484.994
484.504
481.397
481.348
485.582
485.037
481.547
481.55
486.455
485.657
481.699
481.664
493.816
492.648
491.362
490.271
489.019
488.083
486.115
485.243
481.422
481.459
493.645
492.392
490.041
488.903
486.886
486.05
483.726
483.375
480.497
480.778
497.631
497.674
496.893
497.191
496.355
496.396
495.579
495.89
498.549
499.198
497.856
498.528
498.52
499.123
497.768
498.415
497.878
498.523
497.96
498.446
498.977
498.365
496.498
495.672
495.206
494.399
496.976
496.034
497.246
496.409
497.489
496.627
499.592
499.854
498.94
499.239
499.575
499.901
498.889
499.273
499.512
499.954
498.989
499.509
498.199
498.805
497.434
498.184
497.894
497.937
497.538
497.681
496.444
496.466
496.064
496.146
498.531
498.725
498.855
498.934
497.022
497.302
496.409
496.831
495.522
495.712
494.874
495.187
498.041
498.397
497.459
497.977
499.245
499.75
499.33
499.605
499.537
499.942
499.501
499.725
498.783
499.396
499.048
499.388
498.237
498.96
498.675
499.084
499.88
499.773
500.097
499.917
499.815
499.699
500.085
499.887
499.674
499.578
500.035
499.857
498.034
496.611
498.973
499.603
499.926
496.605
497.967
498.889
499.514
499.803
496.635
498.047
499.004
499.544
499.731
499.313
498.509
499.365
498.497
499.309
498.558
499.402
498.569
499.283
498.616
499.455
498.691
496.607
496.306
497.967
497.587
498.807
498.324
499.341
498.772
499.495
498.8
496.724
496.615
498.11
497.943
498.985
498.664
499.424
498.921
499.464
498.773
498.138
498.209
497.836
498.047
496.691
496.885
496.335
496.703
498.734
498.657
498.986
498.798
497.367
497.683
496.89
497.18
495.831
496.302
495.306
495.746
498.334
498.327
497.905
497.86
499.179
498.794
499.163
498.483
499.375
498.902
499.348
498.626
498.873
498.522
498.903
498.208
498.472
498.089
498.58
497.869
497.526
496.607
497.234
496.151
497.643
496.657
497.328
496.18
497.743
496.656
497.471
496.142
495.65
494.469
496.858
495.642
497.549
496.319
497.914
496.647
497.572
496.007
496.089
494.728
497.314
495.882
497.867
496.363
497.924
496.353
497.411
495.644
499.333
497.713
494.972
490.533
498.766
497.154
494.387
489.948
499.366
497.755
495.024
490.554
498.82
497.227
494.485
490.062
499.39
497.791
495.196
490.867
499.042
497.475
494.844
490.51
498.423
496.919
494.243
489.897
497.941
496.531
493.906
489.64
499.221
497.664
495.136
490.881
498.933
497.371
495.091
491.295
499.318
497.727
495.315
491.272
499.002
497.406
495.163
491.497
498.978
497.477
494.888
490.568
498.794
497.281
494.981
491.171
498.663
497.243
494.69
490.473
498.587
497.141
494.87
491.133
499.522
497.903
495.31
491.079
499.268
497.659
495.315
491.555
499.485
497.87
495.316
491.112
499.212
497.602
495.28
491.555
499.394
497.784
495.327
491.246
499.138
497.526
495.234
491.565
499.218
497.61
495.296
491.461
499.035
497.421
495.19
491.632
498.973
497.361
495.179
491.687
498.667
497.067
494.862
492.134
497.877
496.282
494.047
491.509
498.668
497.064
494.867
492.149
497.875
496.273
494.039
491.501
498.652
497.041
494.841
492.12
497.857
496.244
494.008
491.482
498.628
497.008
494.832
492.12
497.834
496.207
493.977
491.456
498.58
496.951
494.81
492.124
497.786
496.142
493.921
491.411
498.306
496.711
494.59
491.938
497.591
495.964
493.778
491.272
498.467
496.845
494.708
492.035
497.722
496.075
493.868
491.362
498.099
496.55
494.443
491.8
497.378
495.797
493.641
491.162
497.861
496.379
494.31
491.688
497.111
495.603
493.493
491.039
484.059
478.943
474.66
471.234
468.649
483.734
478.687
474.423
471.005
468.425
484.056
478.938
474.657
471.233
468.649
483.735
478.689
474.429
471.014
468.435
484.077
478.938
474.658
471.235
468.653
483.893
478.837
474.577
471.161
468.582
483.679
478.656
474.413
471.007
468.433
483.62
478.627
474.402
471.005
468.434
484.041
478.914
474.643
471.226
468.647
483.764
478.541
474.267
470.857
468.283
484.035
478.857
474.574
471.155
468.574
483.733
478.487
474.207
470.795
468.22
483.96
478.863
474.605
471.195
468.618
483.66
478.457
474.195
470.793
468.223
483.912
478.838
474.595
471.192
468.618
483.569
478.387
474.139
470.745
468.179
484.047
478.84
474.543
471.116
468.533
483.703
478.42
474.123
470.703
468.126
484.028
478.816
474.521
471.095
468.513
483.691
478.407
474.111
470.692
468.116
483.978
478.753
474.461
471.039
468.459
483.648
478.363
474.072
470.656
468.083
483.83
478.573
474.284
470.868
468.293
483.538
478.26
473.976
470.565
467.995
483.588
478.328
474.047
470.638
468.064
473.386
472.483
473.26
472.337
472.97
472.024
472.504
471.58
471.752
470.957
469.825
468.787
470.691
469.789
469.077
467.932
468.399
467.237
461.852
450.379
441.337
434.661
430.358
462.114
450.521
441.363
434.637
430.259
461.736
450.298
441.279
434.617
430.321
461.963
450.405
441.299
434.564
430.211
461.5
450.135
441.164
434.529
430.247
461.734
450.25
441.191
434.482
430.141
461.133
449.886
440.986
434.392
430.13
461.395
450.023
441.03
434.359
430.036
460.609
449.536
440.734
434.194
429.958
460.958
449.735
440.824
434.197
429.895
459.344
448.663
440.092
433.688
429.525
459.578
448.808
440.154
433.683
429.467
459.987
449.124
440.435
433.958
429.754
460.326
449.329
440.532
433.973
429.707
458.732
448.197
439.737
433.406
429.283
458.861
448.275
439.756
433.372
429.206
458.133
447.726
439.37
433.11
429.026
458.2
447.742
439.353
433.051
428.921
494.941
493.719
494.614
495.893
497.617
496.912
497.624
496.818
496.348
495.514
496.356
495.641
482.143
482.354
482.895
483.761
484.932
486.346
482.068
482.269
482.784
483.594
484.664
485.925
481.598
480.794
481.837
481.067
482.445
481.754
483.426
482.883
484.743
484.331
486.276
485.829
487.867
489.314
490.565
491.604
492.39
492.969
487.274
488.59
489.778
490.783
491.57
492.127
483.127
483.517
483.449
482.922
481.937
483.341
483.734
483.669
483.143
482.157
483.89
484.288
484.228
483.704
482.717
484.767
485.175
485.122
484.602
483.614
485.955
486.379
486.339
485.826
484.836
487.394
487.841
487.822
487.321
486.331
483.053
483.444
483.378
482.852
481.868
483.257
483.651
483.588
483.064
482.079
483.779
484.179
484.121
483.599
482.614
484.601
485.012
484.962
484.445
483.458
485.688
486.115
486.078
485.568
484.581
486.973
487.422
487.405
486.907
485.921
482.578
482.966
482.897
482.371
481.389
481.769
482.154
482.085
481.562
480.584
482.821
483.211
483.145
482.62
481.637
482.046
482.434
482.368
481.846
480.867
483.435
483.832
483.771
483.248
482.263
482.741
483.136
483.075
482.554
481.574
484.429
484.836
484.783
484.263
483.276
483.883
484.29
484.238
483.721
482.738
485.765
486.189
486.149
485.637
484.648
485.353
485.778
485.741
485.233
484.247
487.324
487.772
487.753
487.253
486.264
486.877
487.327
487.313
486.818
485.833
488.95
489.431
489.443
488.963
487.977
490.444
490.973
491.029
490.58
489.604
491.757
492.352
492.469
492.065
491.107
492.882
493.562
493.757
493.41
492.479
493.766
494.532
494.799
494.506
493.6
494.412
495.228
495.531
495.264
494.371
488.354
488.834
488.845
488.366
487.384
489.709
490.23
490.279
489.827
488.853
490.947
491.519
491.616
491.197
490.236
492.009
492.638
492.787
492.407
491.461
492.849
493.53
493.724
493.375
492.443
493.438
494.146
494.363
494.03
493.103
482.265
482.72
483.506
484.617
486.037
487.703
482.189
482.632
483.387
484.435
485.735
487.207
481.725
480.927
482.218
481.467
483.081
482.423
484.323
483.828
485.903
485.551
487.725
487.381
489.454
491.052
492.319
493.152
493.469
493.359
488.724
490.12
491.26
492.043
492.423
492.43
483.249
483.639
483.571
483.043
482.056
483.708
484.1
484.033
483.504
482.515
484.502
484.898
484.834
484.305
483.313
485.624
486.029
485.97
485.442
484.445
487.06
487.477
487.427
486.902
485.9
488.748
489.184
489.148
488.631
487.625
483.174
483.565
483.498
482.972
481.986
483.62
484.013
483.948
483.421
482.433
484.383
484.781
484.718
484.192
483.201
485.443
485.849
485.792
485.267
484.272
486.758
487.178
487.131
486.609
485.611
488.252
488.691
488.659
488.145
487.144
482.705
483.093
483.024
482.497
481.513
481.902
482.287
482.218
481.693
480.714
483.202
483.592
483.524
482.996
482.01
482.446
482.834
482.766
482.24
481.258
484.073
484.468
484.403
483.875
482.884
483.411
483.804
483.739
483.213
482.226
485.327
485.73
485.67
485.143
484.147
484.83
485.232
485.173
484.648
483.655
486.924
487.34
487.289
486.764
485.763
486.571
486.988
486.938
486.416
485.417
488.769
489.204
489.167
488.648
487.641
488.424
488.859
488.823
488.307
487.303
490.53
490.994
490.981
490.477
489.47
492.167
492.671
492.693
492.212
491.211
493.49
494.05
494.125
493.681
492.694
494.403
495.043
495.192
494.803
493.841
494.822
495.553
495.782
495.454
494.525
494.792
495.593
495.882
495.601
494.699
489.797
490.262
490.252
489.752
488.752
491.23
491.73
491.753
491.274
490.279
492.415
492.962
493.028
492.58
491.596
493.252
493.856
493.975
493.566
492.598
493.69
494.35
494.521
494.151
493.203
493.736
494.436
494.644
494.302
493.37
493.498
493.688
491.261
489.469
489.418
488.971
490.604
494.644
494.159
494.439
493.005
493.153
493.419
492.27
492.066
491.383
494.735
494.615
493.347
493.2
493.975
493.736
492.739
492.52
490.968
490.931
492.3
492.283
494.139
494.126
494.736
494.236
494.063
494.62
492.879
491.458
493.214
495.777
496.917
497.392
497.307
496.638
495.379
496.341
496.755
496.576
495.737
492.371
492.866
492.881
492.393
491.388
490.54
490.999
490.981
490.473
489.464
490.496
490.963
490.954
490.453
489.449
490.037
490.491
490.47
489.96
488.953
491.698
492.178
492.179
491.681
490.674
496.658
497.692
498.113
497.974
497.297
496.109
497.097
497.471
497.287
496.549
495.915
496.738
497.044
496.772
495.871
494.741
495.617
495.913
495.659
494.807
494.394
495.023
495.16
494.761
493.794
494.768
495.49
495.707
495.368
494.433
493.456
494.032
494.123
493.692
492.711
493.274
493.876
493.992
493.58
492.611
492.546
493.102
493.177
492.735
491.754
496.712
497.725
498.129
497.978
497.277
496.016
496.782
497.04
496.732
495.81
494.567
495.175
495.292
494.878
493.902
494.394
494.975
495.067
494.635
493.65
495.242
495.892
496.048
495.661
494.698
494.965
495.581
495.706
495.296
494.322
493.908
494.464
494.533
494.084
493.092
493.671
494.207
494.259
493.797
492.8
492.091
492.605
492.639
492.168
491.173
492.038
492.534
492.55
492.064
491.061
493.463
494.015
494.083
493.633
492.644
493.431
493.965
494.016
493.553
492.556
496.274
497.343
497.783
497.664
496.972
495.674
496.542
496.88
496.639
495.758
496.432
497.342
497.713
497.515
496.727
495.598
496.334
496.567
496.242
495.311
495.34
496.001
496.167
495.789
494.83
496.034
496.813
497.087
496.793
495.878
494.049
494.606
494.676
494.227
493.235
492.575
493.077
493.099
492.616
491.612
494.405
494.982
495.071
494.636
493.65
492.763
493.717
494.099
493.943
493.298
492.045
493.331
493.247
495.066
495.104
493.16
493.008
495.006
494.919
491.467
489.532
491.45
489.709
491.268
491.362
490.026
493.384
493.291
495.139
495.188
493.197
493.045
495.065
494.948
491.368
489.328
491.358
489.557
491.189
491.331
489.897
493.364
493.264
495.161
495.221
493.163
493.005
495.071
494.949
491.281
488.814
491.269
489.114
491.1
491.253
489.527
493.02
492.923
494.856
494.92
492.814
492.63
494.762
494.623
490.804
488.201
490.816
488.523
490.672
490.851
489.018
492.404
492.313
494.231
494.294
492.207
491.992
494.141
494.005
490.179
487.746
490.203
488.004
490.089
490.225
488.486
491.297
491.215
493.086
493.145
491.133
490.954
493
492.881
489.201
486.961
489.244
487.204
489.153
489.298
487.69
497.894
497.899
496.63
496.639
497.863
497.832
496.595
496.544
498.811
499.51
498.762
499.397
498.741
498.617
499.178
497.984
497.974
496.71
496.732
497.915
497.855
496.656
496.596
498.941
499.516
498.867
499.379
498.796
498.632
499.149
498.026
497.997
496.744
496.781
497.909
497.824
496.666
496.577
498.883
499.265
498.791
499.142
498.677
498.508
498.929
497.717
497.675
496.443
496.489
497.57
497.455
496.354
496.264
498.489
498.687
498.385
498.575
498.231
498.031
498.373
497.054
497.007
495.802
495.849
496.877
496.722
495.712
495.612
497.747
497.84
497.636
497.75
497.464
497.245
497.582
495.841
495.792
494.621
494.669
495.664
495.53
494.533
494.439
496.518
496.734
496.412
496.637
496.269
496.083
496.466
483.026
483.332
483.93
484.431
485.241
485.75
487.08
487.493
486.734
487.213
485.293
485.776
484.248
484.705
483.414
483.742
485.629
486.266
486.496
487.381
487.86
488.68
488.659
489.705
481.883
480.001
482.213
480.458
482.723
480.912
483.267
481.559
484.574
483.577
485.483
484.22
482.009
483.075
487.586
489.194
488.446
489.651
489.62
490.977
490.646
491.682
485.671
487.345
486.618
487.891
484.155
485.777
477.842
476.579
478.735
477.427
478.758
477.168
479.828
478.371
480.064
477.906
481.693
479.694
482.964
480.988
484.412
482.4
486.078
486.357
487.466
487.6
489.029
489.389
490.137
490.5
484.904
484.52
483.273
483.2
488.65
488.638
489.727
489.508
491.146
491.443
492.099
492.255
486.247
485.622
487.444
486.519
482.402
479.992
481.485
478.782
480.643
478.177
480.106
477.3
483.861
481.515
482.624
479.97
485.157
482.843
483.529
480.913
474.803
472.014
474.357
471.59
475.661
473.066
474.824
472.184
477.063
475.066
475.591
473.416
484.114
487.591
480.97
478.609
476.086
487.097
483.427
479.687
477.164
474.438
487.996
484.718
481.558
478.588
475.711
469.445
468.189
468.062
466.942
470.769
469.326
468.949
467.739
473.013
471.39
470.441
469
486.28
484.952
482.277
480.479
478.601
476.739
475.675
473.834
471.856
470.019
487.384
486.299
483.722
481.837
480.301
478.164
476.922
474.627
472.71
470.311
485.424
483.316
486.962
485.091
489.024
488.392
490.403
490.041
483.331
480.867
481.832
479.214
488.276
486.399
489.134
487.345
491.523
491.184
492.337
492.089
484.701
482.188
485.563
483.11
479.231
476.271
474.209
470.645
478.022
474.913
473.395
469.895
480.347
477.479
474.987
471.482
481.402
478.506
476.084
472.763
467.811
467.292
466.319
467.553
467.354
466.47
468.669
468.012
466.972
468.194
467.937
466.977
470.368
469.487
468.311
469.143
468.736
467.651
483.323
481.474
479.529
478.567
476.965
475.268
474.975
473.607
472.13
472.397
471.254
469.852
469.904
469.326
468.048
484.78
482.703
480.497
479.342
477.19
475.035
475.642
473.754
471.842
472.674
471.263
469.589
469.973
469.213
467.732
491.844
492.505
492.447
493.304
490.043
490.861
490.733
491.75
492.217
493.617
492.373
493.679
492.631
493.883
492.927
494.104
493.875
493.295
494.227
493.544
494.128
494.61
493.994
494.799
492.587
493.484
494.271
495.034
494.791
495.523
494.897
495.647
495.033
496.294
494.794
495.981
495.223
496.52
495.176
496.377
495.38
496.801
495.715
497.017
495.971
497.121
496.617
497.57
493.389
493.971
494.178
494.833
491.493
491.999
492.414
492.965
495.419
496.201
494.726
495.44
494.953
495.584
495.727
496.251
493.291
493.803
494.143
494.544
496.103
496.866
496.812
497.46
496.464
497.597
497.109
497.795
495.9
497.112
496.442
497.234
497.025
498.029
497.697
498.283
497.645
498.493
498.218
498.71
494.986
494.375
496.161
495.52
495.003
494.353
496.248
495.58
495.016
494.428
496.382
495.78
492.801
490.56
494.22
495.341
496.546
490.104
492.321
493.645
494.744
496.017
490.975
493.156
494.73
495.798
496.681
493.317
491.861
494.446
493.03
493.392
492.004
494.611
493.249
493.588
492.274
494.931
493.656
489.501
488.392
491.848
490.71
493.201
492.027
494.239
493.04
495.438
494.23
490.594
489.932
492.828
492.156
494.355
493.55
495.345
494.36
496.119
494.898
494.087
493.835
494.969
494.958
492.05
491.863
493.105
493.229
496.176
495.858
495.415
494.897
495.655
495.836
496.319
496.573
493.934
494.242
494.677
495.072
496.795
496.645
497.391
497.306
496.929
496.287
497.296
496.301
496.232
495.416
496.749
495.623
497.505
497.018
497.774
496.903
497.997
497.575
498.205
497.447
489.888
487.947
486.139
490.599
488.4
486.582
490.154
488.189
486.337
490.912
488.698
486.8
490.532
488.6
486.717
491.421
489.098
487.07
486.895
485.04
483.06
489.17
487.237
485.201
490.454
488.43
486.351
491.365
489.339
487.322
491.976
489.528
487.316
488.728
486.709
484.454
490.885
488.814
486.537
492.091
489.889
487.536
492.64
490.318
487.94
492.53
489.958
487.522
496.842
496.022
493.812
489.746
496.472
495.591
493.308
489.21
497.011
496.156
493.939
489.836
496.785
495.841
493.534
489.423
497.223
496.319
494.193
490.21
497.325
496.305
494.032
489.962
497.271
496.132
493.697
489.525
497.522
496.244
493.707
489.502
497.73
496.644
494.422
490.384
497.657
496.497
494.465
490.832
497.367
496.399
494.394
490.65
497.254
496.215
494.332
490.912
498.028
496.825
494.425
490.236
498.01
496.742
494.587
490.865
498.334
497.017
494.529
490.357
498.321
496.958
494.735
491.026
496.775
496.05
494.042
490.214
496.254
495.65
493.941
490.599
496.822
496.073
494.094
490.294
496.276
495.642
493.944
490.636
496.887
496.091
494.176
490.486
496.385
495.683
493.981
490.713
496.906
496.047
494.229
490.754
496.49
495.712
494.031
490.853
496.856
495.929
494.194
491.01
495.454
494.958
493.426
491.043
494.559
494.132
492.571
490.346
495.551
495.009
493.465
491.09
494.659
494.178
492.596
490.363
495.732
495.106
493.524
491.131
494.84
494.266
492.644
490.405
495.996
495.253
493.635
491.229
495.087
494.395
492.721
490.463
496.339
495.447
493.768
491.336
495.378
494.543
492.805
490.521
497.006
495.828
493.957
491.428
496.136
494.984
493.083
490.712
496.677
495.635
493.857
491.374
495.756
494.761
492.942
490.619
497.306
496.009
494.05
491.473
496.49
495.196
493.214
490.815
497.595
496.197
494.177
491.577
496.817
495.404
493.351
490.924
483.597
478.662
474.485
471.116
468.558
483.287
478.41
474.248
470.886
468.331
483.637
478.682
474.498
471.127
468.566
483.354
478.455
474.284
470.917
468.36
483.707
478.714
474.518
471.142
468.58
483.576
478.643
474.456
471.081
468.519
483.458
478.52
474.328
470.951
468.389
483.536
478.576
474.37
470.984
468.418
483.754
478.74
474.535
471.154
468.591
483.51
478.389
474.173
470.795
468.234
483.698
478.653
474.448
471.071
468.509
483.43
478.306
474.095
470.721
468.163
483.763
478.743
474.53
471.145
468.58
483.487
478.353
474.131
470.75
468.189
483.843
478.797
474.569
471.175
468.605
483.509
478.351
474.117
470.73
468.167
483.568
478.553
474.366
470.999
468.442
483.212
478.13
473.945
470.585
468.036
483.575
478.543
474.351
470.982
468.425
483.217
478.124
473.935
470.575
468.025
483.571
478.508
474.309
470.938
468.38
483.216
478.106
473.912
470.55
467.999
483.468
478.356
474.15
470.779
468.223
483.157
478.033
473.835
470.471
467.922
483.254
478.129
473.924
470.555
468.001
462.313
461.537
462.688
461.892
463.341
462.458
464.176
463.139
465.016
463.81
466.355
464.963
465.674
464.31
467.026
465.687
467.723
466.507
453.854
444.72
437.155
431.365
427.498
453.996
444.8
437.15
431.324
427.394
454.024
444.811
437.212
431.407
427.534
454.145
444.863
437.203
431.34
427.418
454.348
444.991
437.329
431.494
427.608
454.458
445.038
437.315
431.423
427.489
454.788
445.251
437.503
431.623
427.718
454.861
445.275
437.473
431.54
427.587
455.304
445.583
437.731
431.794
427.864
455.298
445.555
437.667
431.687
427.714
456.42
446.396
438.334
432.269