/*--------------------------------*- C++ -*----------------------------------*\
  =========                 |
  \\      /  F ield         | OpenFOAM: The Open Source CFD Toolbox
   \\    /   O peration     | Website:  https://openfoam.org
    \\  /    A nd           | Version:  12
     \\/     M anipulation  |
\*---------------------------------------------------------------------------*/
FoamFile
{
    format      ascii;
    class       volScalarField;
    location    "150";
    object      T;
}
// * * * * * * * * * * * * * * * * * * * * * * * * * * * * * * * * * * * * * //

dimensions      [];

internalField   nonuniform List<scalar> 
4480
(
7.96936e-13
2.19658e-10
1.00999e-06
0.000185463
0.00347352
0.0173234
0.0453704
0.0849218
0.130946
0.178912
0.225647
0.269253
0.308751
0.343764
0.374269
0.400441
0.422553
0.440918
0.455853
0.467658
0.476616
0.482977
0.486964
0.488773
0.488578
0.486532
0.482767
0.478053
0.473269
0.468389
0.463386
0.458231
0.452894
0.447347
0.441559
0.435497
0.429127
0.422412
0.415309
0.407775
0.399763
0.391216
0.382074
0.372273
0.361739
0.350388
0.338132
0.324879
0.310529
0.294987
0.278175
0.260041
0.240578
0.219858
0.19805
0.175444
0.152463
0.129642
0.107595
0.0869495
0.0682683
0.0519785
0.038317
0.027314
0.0188112
0.0125099
0.00803118
0.00497761
0.00297914
0.00172269
0.000963043
0.000520898
0.000272844
0.000138533
6.82527e-05
3.26648e-05
1.52025e-05
6.88833e-06
3.04208e-06
1.31096e-06
5.51916e-07
2.27269e-07
9.1646e-08
4.39027e-08
2.61394e-08
1.78429e-08
1.29176e-08
9.57818e-09
7.21017e-09
5.5112e-09
4.28546e-09
3.39593e-09
2.74681e-09
2.27176e-09
1.92492e-09
1.67451e-09
1.49876e-09
1.38318e-09
1.319e-09
1.30233e-09
1.33399e-09
1.42018e-09
1.57409e-09
1.81922e-09
2.19526e-09
2.76888e-09
3.65342e-09
5.04529e-09
7.29348e-09
1.10342e-08
1.74588e-08
2.88579e-08
4.97501e-08
8.92662e-08
1.66266e-07
3.2048e-07
6.37038e-07
1.30102e-06
2.72086e-06
5.82247e-06
1.28357e-05
2.96135e-05
7.23994e-05
0.000192932
0.000626581
0.00211038
0.00438439
0.00693916
0.00368558
0.000346725
3.66541e-05
2.22713e-06
1.14373e-07
5.76101e-09
2.52617e-10
8.36642e-12
1.99986e-13
2.71755e-15
1.64264e-17
2.52095e-20
7.58417e-13
3.16395e-08
3.64089e-05
0.00268326
0.0252428
0.0809197
0.159684
0.245698
0.32812
0.401869
0.465524
0.519454
0.564715
0.602498
0.633909
0.65992
0.681337
0.698829
0.71295
0.724155
0.732818
0.73924
0.743675
0.746324
0.747355
0.746901
0.745071
0.741816
0.737351
0.731779
0.725202
0.717717
0.709418
0.700391
0.690712
0.680452
0.669671
0.658417
0.646727
0.634633
0.622152
0.609291
0.596043
0.582398
0.568328
0.553793
0.538747
0.523124
0.506851
0.489842
0.472
0.453228
0.43342
0.412484
0.390347
0.366965
0.34235
0.31657
0.289773
0.262192
0.234144
0.20604
0.178351
0.151604
0.126331
0.103028
0.0821068
0.0638561
0.04841
0.0357425
0.0256841
0.0179553
0.0122092
0.00807508
0.00519574
0.00325337
0.00198335
0.00117783
0.0006818
0.000384961
0.000212167
0.00011423
6.01246e-05
3.16592e-05
1.69879e-05
9.4087e-06
5.43243e-06
3.28589e-06
2.08108e-06
1.37459e-06
9.42231e-07
6.67522e-07
4.87522e-07
3.66651e-07
2.83914e-07
2.26472e-07
1.86262e-07
1.58123e-07
1.38734e-07
1.25975e-07
1.18552e-07
1.1579e-07
1.17531e-07
1.24134e-07
1.36575e-07
1.56666e-07
1.87496e-07
2.34195e-07
3.05323e-07
4.1533e-07
5.89065e-07
8.70091e-07
1.33631e-06
2.12965e-06
3.51323e-06
5.98273e-06
1.0486e-05
1.88618e-05
3.47371e-05
6.54246e-05
0.000126119
0.00024923
0.000503779
0.00103246
0.00210178
0.00399708
0.00645651
0.00809369
0.00438394
0.000573883
6.81661e-05
6.8649e-06
5.7964e-07
4.02538e-08
2.29388e-09
9.60958e-11
2.87004e-12
4.96312e-14
3.99399e-16
9.76611e-19
3.55601e-10
1.2963e-06
0.00049123
0.0160915
0.0852929
0.196468
0.315341
0.421643
0.509471
0.579924
0.636195
0.681443
0.718156
0.748164
0.772792
0.793025
0.80961
0.823133
0.834066
0.842788
0.849612
0.854787
0.858522
0.860984
0.862306
0.862594
0.861932
0.860224
0.857468
0.85372
0.849032
0.843449
0.837018
0.829778
0.821779
0.813061
0.80367
0.793649
0.783038
0.771875
0.760194
0.748025
0.735391
0.722309
0.708787
0.694828
0.680419
0.665543
0.650167
0.63425
0.617736
0.600555
0.582626
0.563858
0.544157
0.523416
0.501543
0.478451
0.454077
0.428396
0.401424
0.373243
0.344002
0.313937
0.283361
0.252664
0.222303
0.192768
0.164557
0.138142
0.113922
0.0922099
0.0731934
0.0569368
0.0433803
0.0323586
0.0236241
0.0168778
0.0117993
0.00807251
0.00540557
0.00354385
0.00227536
0.00143971
0.000903446
0.000564672
0.00035321
0.000222239
0.000141374
9.13596e-05
6.02192e-05
4.06158e-05
2.80943e-05
1.99597e-05
1.45796e-05
1.0958e-05
8.48107e-06
6.7651e-06
5.56723e-06
4.73182e-06
4.15865e-06
3.78385e-06
3.56852e-06
3.49211e-06
3.54945e-06
3.75023e-06
4.12125e-06
4.71218e-06
5.60589e-06
6.93667e-06
8.92138e-06
1.19124e-05
1.64886e-05
2.36119e-05
3.48993e-05
5.30965e-05
8.29077e-05
0.000132448
0.000215793
0.000357406
0.00059957
0.00101338
0.00170997
0.00283751
0.0045267
0.00670785
0.00876249
0.00922964
0.0052442
0.000896326
0.000128505
1.60514e-05
1.69386e-06
1.45202e-07
1.01355e-08
5.1806e-10
1.89424e-11
4.08573e-13
4.26421e-15
1.44904e-17
2.37132e-08
2.36009e-05
0.00352365
0.0566787
0.190367
0.341972
0.47083
0.569146
0.642268
0.697542
0.740707
0.775458
0.803991
0.82762
0.847206
0.863385
0.876672
0.887493
0.896221
0.903171
0.908611
0.912763
0.915811
0.917907
0.919164
0.919674
0.919509
0.918624
0.916986
0.914627
0.911566
0.907815
0.903387
0.898289
0.892528
0.886118
0.87907
0.871396
0.863119
0.854255
0.844827
0.834856
0.824364
0.813374
0.8019
0.789961
0.777562
0.764712
0.751403
0.737627
0.723362
0.708574
0.693223
0.677249
0.660589
0.643161
0.624876
0.605633
0.585336
0.563881
0.541182
0.517161
0.49178
0.465034
0.436967
0.407688
0.377374
0.346267
0.314684
0.282998
0.251628
0.221023
0.191627
0.163862
0.138098
0.114628
0.0936565
0.0752845
0.0595126
0.046249
0.0353252
0.026515
0.0195567
0.0142024
0.0101875
0.00723067
0.00508847
0.003559
0.00248061
0.00172802
0.00120686
0.000847815
0.000601041
0.000431375
0.000314395
0.000233334
0.000176792
0.000137059
0.000108943
8.8948e-05
7.47208e-05
6.4682e-05
5.778e-05
5.33307e-05
5.09175e-05
5.03319e-05
5.15479e-05
5.4721e-05
6.02173e-05
6.86776e-05
8.11279e-05
9.91622e-05
0.000125232
0.000163106
0.000218578
0.000300569
0.000422801
0.000606253
0.000882611
0.00129859
0.00191997
0.00283111
0.00412015
0.00583281
0.00787735
0.0098777
0.011029
0.0101775
0.00604624
0.001328
0.000223616
3.24916e-05
3.97691e-06
3.95028e-07
3.20652e-08
1.91616e-09
8.27787e-11
2.15083e-12
2.78865e-14
1.22981e-16
6.37033e-07
0.000240155
0.0159561
0.138611
0.326646
0.485479
0.597246
0.673468
0.727614
0.768926
0.802546
0.830872
0.854908
0.875154
0.891996
0.90582
0.91703
0.926011
0.933116
0.938665
0.94293
0.946136
0.948471
0.95008
0.951079
0.951552
0.95156
0.951091
0.950077
0.94854
0.946491
0.943934
0.940871
0.937296
0.933206
0.928595
0.923455
0.917788
0.911589
0.904866
0.897618
0.88986
0.881596
0.872844
0.863613
0.853921
0.843779
0.833197
0.822184
0.810745
0.798877
0.786572
0.773815
0.760578
0.746829
0.73252
0.717592
0.701971
0.685583
0.668331
0.65012
0.630847
0.610415
0.588733
0.56572
0.541331
0.515544
0.488383
0.459922
0.430289
0.399671
0.368315
0.336525
0.304649
0.273072
0.242196
0.212421
0.184125
0.157644
0.133254
0.111156
0.0914688
0.0742292
0.0594288
0.0470182
0.0367883
0.0284932
0.0218709
0.0166603
0.0126149
0.00951165
0.00715624
0.00538447
0.00406139
0.00307887
0.00235205
0.00181557
0.0014199
0.00112804
0.000912646
0.000753737
0.000636837
0.000551558
0.000490546
0.000448704
0.000422661
0.000410406
0.000411085
0.000424921
0.000453261
0.000498748
0.000565664
0.000660443
0.000792449
0.000975031
0.00122692
0.00157394
0.00205078
0.00270211
0.00358155
0.00474517
0.00623395
0.00803784
0.0100373
0.0119306
0.0131808
0.0130549
0.0108951
0.00663629
0.00186384
0.000359609
5.9146e-05
8.15192e-06
9.10312e-07
8.33827e-08
5.65584e-09
2.8036e-10
8.50702e-12
1.32152e-13
7.22252e-16
9.45914e-06
0.00157378
0.0508021
0.26053
0.466999
0.60231
0.68526
0.739503
0.779444
0.812432
0.841464
0.867105
0.889194
0.907675
0.92274
0.934771
0.944208
0.951487
0.957015
0.961137
0.964153
0.966307
0.9678
0.968781
0.969364
0.969631
0.969632
0.969377
0.968742
0.967741
0.966377
0.964648
0.962549
0.960069
0.957197
0.953918
0.950224
0.9461
0.941538
0.936533
0.931078
0.925171
0.918814
0.912013
0.904775
0.897105
0.889016
0.880518
0.871623
0.862338
0.852672
0.842629
0.832209
0.821403
0.8102
0.798579
0.786509
0.773949
0.760846
0.747141
0.732761
0.717618
0.701625
0.684681
0.666687
0.647548
0.627167
0.605472
0.582404
0.557928
0.532052
0.504818
0.476318
0.44669
0.416126
0.384871
0.353211
0.321475
0.290018
0.259205
0.229402
0.200953
0.174165
0.149303
0.126695
0.106449
0.088588
0.0730625
0.0597582
0.048513
0.0391313
0.0313992
0.0250986
0.0200171
0.0159566
0.012738
0.0102046
0.00822196
0.00667796
0.00548052
0.00455552
0.0038441
0.00330034
0.00288889
0.00258304
0.00236307
0.00221496
0.00212944
0.00210129
0.002129
0.00221468
0.0023641
0.00258714
0.00289828
0.00331718
0.00386916
0.00458507
0.00549974
0.00664779
0.00805445
0.00971903
0.0115882
0.0135201
0.0152469
0.0163594
0.0163462
0.0147381
0.0113968
0.00691258
0.00248222
0.000540175
9.90614e-05
1.51404e-05
1.86972e-06
1.89864e-07
1.43426e-08
7.99214e-10
2.76782e-11
5.01736e-13
3.2963e-15
9.20948e-05
0.00731428
0.122411
0.402107
0.585127
0.68325
0.740188
0.779462
0.811691
0.841282
0.869069
0.89399
0.915091
0.932158
0.94551
0.955684
0.963241
0.9687
0.972512
0.975065
0.976685
0.977639
0.97814
0.978352
0.978389
0.978328
0.978209
0.97805
0.977672
0.977079
0.976262
0.975206
0.973896
0.972312
0.970437
0.968247
0.965727
0.96286
0.95963
0.956028
0.95204
0.94766
0.942888
0.937719
0.932159
0.926209
0.919876
0.913171
0.906105
0.898685
0.890924
0.882833
0.874416
0.865678
0.856622
0.847243
0.837527
0.827459
0.817012
0.806148
0.794822
0.782979
0.770552
0.757465
0.743636
0.72897
0.713369
0.696738
0.678977
0.659998
0.639717
0.618073
0.595019
0.570549
0.544678
0.517467
0.489019
0.459484
0.42906
0.397987
0.366541
0.33504
0.303814
0.27317
0.243605
0.215448
0.188986
0.164445
0.141984
0.121693
0.103594
0.0876498
0.0737694
0.0618216
0.0516473
0.043069
0.0359031
0.0299676
0.025089
0.0211078
0.0178803
0.0152812
0.0132026
0.0115543
0.0102619
0.00926561
0.00851818
0.0079838
0.00763642
0.00745875
0.00744118
0.00758117
0.00788248
0.00835447
0.00901091
0.00986802
0.0109411
0.0122384
0.0137518
0.0154428
0.0172235
0.0189357
0.0203338
0.0210858
0.0208109
0.0191742
0.0160468
0.0117073
0.00697913
0.00299101
0.000765656
0.000155051
2.60312e-05
3.51987e-06
3.9193e-07
3.25762e-08
2.01298e-09
7.83406e-11
1.62819e-12
1.26207e-14
0.000659305
0.0258182
0.235
0.533457
0.667828
0.732968
0.773072
0.804489
0.833641
0.862744
0.890944
0.915758
0.935863
0.951283
0.96267
0.970787
0.976308
0.979804
0.981758
0.982586
0.982646
0.982236
0.981595
0.980897
0.980267
0.979777
0.979461
0.979317
0.979134
0.978892
0.978568
0.97813
0.97755
0.976795
0.975832
0.974634
0.973171
0.971423
0.96937
0.966991
0.964277
0.961215
0.957799
0.954027
0.949895
0.945412
0.940579
0.935402
0.929893
0.924064
0.917925
0.911487
0.904764
0.897766
0.890499
0.88297
0.875181
0.867128
0.8588
0.850184
0.841255
0.831975
0.822312
0.81221
0.801607
0.790439
0.778625
0.766082
0.752713
0.738427
0.723124
0.706708
0.689083
0.670172
0.649898
0.628215
0.605097
0.580544
0.554599
0.527333
0.498868
0.469368
0.439035
0.408086
0.376862
0.345733
0.315043
0.285134
0.256331
0.228918
0.203137
0.179177
0.157167
0.137177
0.119222
0.103267
0.0892337
0.0770099
0.0664605
0.0574359
0.0497798
0.0433373
0.0379594
0.0335082
0.0298589
0.0269014
0.024541
0.0226978
0.0213068
0.0203157
0.019684
0.0193813
0.0193851
0.0196785
0.0202461
0.0210699
0.0221221
0.023357
0.0246997
0.0260337
0.0271891
0.0279383
0.0280037
0.0270928
0.0249649
0.021533
0.0169803
0.0118429
0.00696602
0.0032233
0.00103333
0.000229417
4.20345e-05
6.18406e-06
7.49774e-07
6.8049e-08
4.62276e-09
2.00196e-10
4.71898e-12
4.27115e-14
0.00379568
0.0726552
0.372481
0.63068
0.717685
0.762214
0.793604
0.821593
0.850132
0.88018
0.909447
0.934068
0.952769
0.966172
0.975366
0.981299
0.984685
0.986095
0.98603
0.98494
0.983232
0.981253
0.979277
0.97751
0.976087
0.97508
0.974509
0.974344
0.974327
0.974425
0.974593
0.974781
0.974938
0.975017
0.974969
0.97475
0.974324
0.973655
0.972717
0.97149
0.969952
0.968096
0.965908
0.963384
0.960524
0.95733
0.953804
0.949958
0.945799
0.941338
0.936588
0.931563
0.926278
0.920746
0.914978
0.908988
0.902782
0.896368
0.889746
0.882915
0.875866
0.868583
0.861042
0.853216
0.845068
0.836549
0.827607
0.818175
0.808183
0.797554
0.786199
0.774024
0.760937
0.746835
0.731626
0.715214
0.697514
0.678454
0.657975
0.636044
0.612652
0.587827
0.561626
0.534151
0.50549
0.475913
0.445675
0.415061
0.384382
0.353961
0.324122
0.295168
0.267385
0.241014
0.216256
0.19326
0.172125
0.152897
0.135579
0.120128
0.106472
0.09451
0.0841231
0.0751825
0.0675556
0.0611106
0.0557225
0.051274
0.047659
0.0447823
0.0425594
0.0409146
0.0397792
0.0390873
0.0387713
0.0387555
0.0389496
0.0392395
0.0394807
0.0394928
0.0390606
0.0379468
0.0359208
0.0328098
0.028567
0.0233455
0.0175484
0.0118111
0.00686763
0.00329068
0.00122415
0.000323899
6.44541e-05
1.02736e-05
1.35021e-06
1.33193e-07
9.89554e-09
4.74153e-10
1.26006e-11
1.32519e-13
0.0171759
0.169041
0.500035
0.687595
0.746054
0.780371
0.807553
0.834244
0.863328
0.895021
0.925559
0.949569
0.966367
0.977471
0.984391
0.988114
0.989291
0.988456
0.986133
0.982841
0.979067
0.975235
0.971682
0.968653
0.966299
0.964689
0.963828
0.963618
0.963778
0.964251
0.964963
0.965841
0.966807
0.967789
0.968719
0.969538
0.97019
0.970633
0.970828
0.970749
0.970372
0.96968
0.968662
0.967313
0.965633
0.963624
0.961289
0.958636
0.955678
0.952427
0.948893
0.945096
0.941051
0.936772
0.932279
0.927585
0.922699
0.917639
0.91241
0.907017
0.901466
0.895749
0.889859
0.883782
0.877496
0.870974
0.864181
0.857074
0.849601
0.841705
0.833316
0.824366
0.81477
0.804443
0.793289
0.781214
0.768122
0.75391
0.738491
0.721772
0.703685
0.684169
0.663184
0.640722
0.616728
0.591315
0.564597
0.536733
0.507926
0.478418
0.448475
0.418392
0.388473
0.359023
0.330333
0.302674
0.276284
0.251362
0.228064
0.206497
0.186726
0.168769
0.152609
0.138196
0.12545
0.114276
0.104562
0.096192
0.089043
0.0829925
0.0779194
0.0737038
0.0702256
0.0673627
0.0649859
0.0629557
0.061117
0.059295
0.0572954
0.0549084
0.0519226
0.0481497
0.043463
0.0378455
0.0314392
0.0245756
0.0177649
0.011616
0.0066821
0.00326775
0.00130488
0.000407237
9.46956e-05
1.63074e-05
2.31656e-06
2.4773e-07
2.00727e-08
1.06115e-09
3.17088e-11
3.86932e-13
0.0481493
0.291238
0.60039
0.717885
0.763435
0.792676
0.81761
0.84395
0.874156
0.907886
0.939705
0.962556
0.97702
0.985728
0.990434
0.991963
0.990802
0.987447
0.98249
0.976577
0.970327
0.964277
0.958849
0.954337
0.950906
0.948624
0.947467
0.947224
0.947615
0.948547
0.949914
0.951605
0.953511
0.955528
0.957563
0.959535
0.961369
0.96301
0.964413
0.965533
0.96635
0.966842
0.966994
0.966801
0.966263
0.965384
0.964169
0.962628
0.960775
0.958622
0.956187
0.953485
0.950538
0.947359
0.943968
0.940383
0.936622
0.932701
0.928628
0.924421
0.920084
0.915621
0.911035
0.906321
0.901469
0.896464
0.891289
0.885912
0.880306
0.874424
0.868226
0.861653
0.854643
0.847129
0.839032
0.830275
0.820764
0.810409
0.799111
0.786771
0.773295
0.758593
0.742572
0.725166
0.706248
0.685806
0.663845
0.640404
0.615564
0.589439
0.562194
0.534026
0.505171
0.475891
0.446464
0.417184
0.388338
0.3602
0.333026
0.307042
0.282433
0.259347
0.237886
0.218115
0.200051
0.183682
0.168958
0.155806
0.144126
0.133805
0.124712
0.116705
0.10963
0.103323
0.0976083
0.0922968
0.0871895
0.082078
0.0767534
0.0710194
0.0647136
0.0577376
0.0500921
0.0419102
0.0334768
0.0252181
0.0176479
0.0112636
0.00641178
0.00317065
0.00132187
0.000449902
0.000121004
2.49453e-05
3.82369e-06
4.42759e-07
3.90815e-08
2.27751e-09
7.64879e-11
1.08373e-12
0.102604
0.406173
0.661097
0.740911
0.776167
0.801346
0.824947
0.851403
0.883047
0.919055
0.952107
0.973208
0.985063
0.991479
0.994125
0.993429
0.989656
0.983323
0.97518
0.966081
0.956839
0.948141
0.940508
0.934285
0.929653
0.92666
0.925246
0.925021
0.925745
0.927281
0.929472
0.932164
0.935203
0.938447
0.941771
0.945067
0.948241
0.951219
0.95394
0.956359
0.958442
0.96017
0.961529
0.96251
0.963117
0.963353
0.963228
0.962754
0.961948
0.960825
0.959404
0.957705
0.955748
0.953554
0.951143
0.948535
0.945751
0.942806
0.93972
0.936505
0.933176
0.92974
0.926206
0.922574
0.918848
0.915018
0.911075
0.907006
0.902789
0.8984
0.893806
0.88897
0.883846
0.878384
0.872527
0.866209
0.85936
0.851897
0.843739
0.834797
0.824975
0.814176
0.802299
0.789253
0.774889
0.759132
0.74191
0.723185
0.702938
0.681183
0.657974
0.633403
0.607598
0.580728
0.552999
0.524645
0.495923
0.467104
0.438465
0.410275
0.38279
0.356241
0.330828
0.306711
0.284015
0.262818
0.243159
0.225037
0.208412
0.193211
0.17933
0.166639
0.154984
0.14419
0.134066
0.124411
0.115018
0.105684
0.0962263
0.0865027
0.0764331
0.0660271
0.0554079
0.0448241
0.0346395
0.0252924
0.0172212
0.0107642
0.00606335
0.00301307
0.00128977
0.000463452
0.000136052
3.17294e-05
5.70992e-06
7.67381e-07
7.37919e-08
4.74258e-09
1.7918e-10
2.95362e-12
0.181912
0.499599
0.698572
0.757257
0.786532
0.808006
0.830165
0.856965
0.8902
0.928649
0.962887
0.981688
0.990859
0.995258
0.996008
0.992915
0.986046
0.976061
0.964005
0.95103
0.938205
0.926394
0.916226
0.908093
0.902177
0.898492
0.896918
0.896816
0.898037
0.900382
0.903633
0.907574
0.911998
0.916716
0.921563
0.926396
0.931102
0.935584
0.939771
0.94361
0.947066
0.950111
0.952734
0.954931
0.956706
0.958065
0.959026
0.959601
0.959807
0.959671
0.959211
0.958452
0.957412
0.956119
0.954596
0.952864
0.950945
0.948858
0.946628
0.944264
0.94179
0.939213
0.936547
0.933799
0.930972
0.928071
0.925088
0.922022
0.918859
0.915585
0.912179
0.908617
0.904868
0.900893
0.896655
0.892102
0.88718
0.881829
0.875979
0.869556
0.862476
0.854652
0.845995
0.836404
0.825744
0.813905
0.800789
0.786308
0.770389
0.752975
0.73404
0.713583
0.691635
0.668267
0.643592
0.617751
0.590924
0.563327
0.535192
0.506771
0.478325
0.450109
0.422366
0.395321
0.369165
0.344059
0.32012
0.297428
0.276013
0.255868
0.236943
0.219151
0.202374
0.186468
0.171267
0.156597
0.142288
0.128187
0.114178
0.100201
0.0862781
0.0725253
0.0591635
0.0465088
0.0349396
0.0248382
0.016516
0.0101336
0.00564745
0.0028079
0.0012208
0.000454045
0.000141055
3.56622e-05
7.12599e-06
1.08639e-06
1.20543e-07
9.05693e-09
4.04872e-10
7.91913e-12
0.268086
0.59786
0.723186
0.768989
0.793921
0.813597
0.833902
0.860837
0.89571
0.936712
0.972148
0.988183
0.994805
0.997577
0.996512
0.990635
0.979939
0.965419
0.948573
0.930953
0.913925
0.898547
0.885555
0.875375
0.868165
0.863882
0.862324
0.86252
0.864471
0.867899
0.872506
0.878
0.884107
0.890582
0.897214
0.903826
0.910272
0.916443
0.922258
0.927651
0.932587
0.937039
0.940998
0.944463
0.94744
0.949945
0.951995
0.953611
0.954817
0.955639
0.956102
0.956234
0.95606
0.955607
0.954902
0.953966
0.952831
0.951513
0.950037
0.948421
0.946682
0.94484
0.942906
0.940892
0.938804
0.936653
0.934436
0.932155
0.929805
0.92738
0.924867
0.922249
0.919507
0.916619
0.913551
0.910268
0.906736
0.902899
0.898713
0.894111
0.889033
0.883401
0.877138
0.870155
0.862339
0.853567
0.843738
0.832747
0.82049
0.806877
0.791826
0.775275
0.757186
0.737547
0.716377
0.693732
0.669705
0.644424
0.618052
0.590778
0.562818
0.534405
0.505774
0.477164
0.448799
0.420881
0.393586
0.367055
0.34139
0.316653
0.292861
0.269997
0.248005
0.226806
0.206299
0.186382
0.166959
0.147965
0.129381
0.111252
0.0937026
0.0769418
0.0612534
0.0469709
0.0344304
0.023911
0.0155701
0.00939296
0.00517782
0.00256766
0.00112554
0.000427715
0.000137873
3.67836e-05
7.89109e-06
1.3131e-06
1.6141e-07
1.36117e-08
6.91216e-10
1.55602e-11
0.337189
0.640383
0.740268
0.777235
0.798806
0.817118
0.837267
0.863145
0.899608
0.943235
0.979971
0.992916
0.997309
0.998885
0.995929
0.986621
0.971117
0.951003
0.928394
0.905329
0.883499
0.864161
0.848133
0.835853
0.827433
0.822743
0.821465
0.822221
0.825221
0.830081
0.836405
0.843804
0.851926
0.860464
0.869155
0.877785
0.886185
0.894227
0.901816
0.908887
0.915404
0.921343
0.926698
0.931474
0.935686
0.939352
0.9425
0.945152
0.947343
0.949101
0.950458
0.951445
0.952092
0.95243
0.952487
0.952291
0.95187
0.951249
0.950451
0.949498
0.948409
0.947204
0.945898
0.944506
0.943038
0.941503
0.939908
0.938256
0.936548
0.93478
0.932948
0.931045
0.929055
0.926963
0.924748
0.922387
0.919848
0.917101
0.914102
0.910807
0.907165
0.903117
0.898595
0.893525
0.887822
0.881358
0.874041
0.865767
0.856421
0.845901
0.834094
0.820905
0.806246
0.790049
0.772262
0.752868
0.731875
0.709327
0.685307
0.659924
0.633328
0.605693
0.577212
0.5481
0.518571
0.48884
0.459107
0.429555
0.400338
0.37158
0.343374
0.315778
0.288822
0.262515
0.236854
0.211837
0.187481
0.163834
0.140992
0.119111
0.0984115
0.0791681
0.0616899
0.0462817
0.0331959
0.0225791
0.0144276
0.00856758
0.00467029
0.0023045
0.00101321
0.000389919
0.000128704
3.55885e-05
8.01294e-06
1.41691e-06
1.8727e-07
1.71663e-08
9.57401e-10
2.39263e-11
0.395186
0.671602
0.753775
0.782655
0.801446
0.818669
0.83899
0.865047
0.901905
0.948184
0.986434
0.996153
0.998764
0.999551
0.994418
0.980755
0.959238
0.932347
0.902971
0.873696
0.846542
0.822937
0.803766
0.789448
0.780022
0.775228
0.773986
0.775702
0.780229
0.78703
0.795568
0.805339
0.815896
0.826858
0.837913
0.848813
0.859369
0.869443
0.878936
0.887787
0.89596
0.90344
0.91023
0.916343
0.921801
0.926632
0.93087
0.934549
0.937704
0.940372
0.942593
0.944399
0.945826
0.946909
0.94768
0.94817
0.948408
0.948422
0.948238
0.947879
0.947367
0.946723
0.945966
0.945108
0.944166
0.943152
0.942071
0.940933
0.939741
0.938496
0.937197
0.935839
0.934418
0.932921
0.931335
0.929646
0.927831
0.925863
0.923717
0.921357
0.918739
0.91582
0.912547
0.908859
0.904684
0.899914
0.894464
0.888231
0.881114
0.872996
0.863763
0.853297
0.841482
0.828214
0.813393
0.796944
0.778807
0.758957
0.737395
0.714154
0.689307
0.662952
0.63523
0.606299
0.57634
0.545551
0.514132
0.482284
0.450196
0.418044
0.385987
0.354169
0.322711
0.29173
0.261341
0.231665
0.202849
0.175068
0.148542
0.123529
0.100326
0.0792424
0.0605743
0.0445608
0.0313418
0.0209192
0.0131365
0.00768501
0.00414151
0.00202987
0.000891753
0.000345354
0.000115653
3.2734e-05
7.6143e-06
1.40399e-06
1.95247e-07
1.89938e-08
1.13347e-09
3.05608e-11
0.443166
0.693471
0.761416
0.785639
0.801984
0.81823
0.838873
0.866445
0.902884
0.951518
0.991611
0.998182
0.999518
0.999849
0.992011
0.972811
0.943905
0.908993
0.871885
0.835726
0.802837
0.774782
0.752482
0.736316
0.726212
0.721749
0.720856
0.724023
0.730582
0.739819
0.751038
0.763601
0.776957
0.79065
0.804317
0.817683
0.830544
0.842756
0.854228
0.864909
0.874767
0.883802
0.892026
0.899466
0.906154
0.912128
0.917429
0.922101
0.926186
0.929729
0.93277
0.935354
0.937518
0.939301
0.940737
0.941863
0.942706
0.9433
0.943672
0.943848
0.943854
0.943706
0.943429
0.94304
0.942551
0.941978
0.941331
0.940618
0.939849
0.939024
0.938148
0.937218
0.936235
0.935188
0.934077
0.932883
0.931594
0.930195
0.928662
0.926968
0.925084
0.922973
0.920591
0.917889
0.914809
0.911265
0.907174
0.90245
0.896992
0.89069
0.883428
0.875081
0.865522
0.854619
0.842245
0.828279
0.812617
0.79517
0.775872
0.754689
0.731616
0.706684
0.67996
0.651544
0.621569
0.590196
0.557611
0.524012
0.489613
0.454632
0.419289
0.383809
0.348416
0.313342
0.278826
0.245128
0.212528
0.181333
0.151873
0.124494
0.0995364
0.0773136
0.0580728
0.0419598
0.0289866
0.0190126
0.0117463
0.0067735
0.00360789
0.00175408
0.000767835
0.000297882
0.000100536
2.88682e-05
6.85969e-06
1.30113e-06
1.87408e-07
1.90066e-08
1.18987e-09
3.38631e-11
0.482296
0.708711
0.765534
0.78639
0.800442
0.815731
0.836735
0.865921
0.903777
0.953185
0.99555
0.999308
0.999854
0.999961
0.988662
0.962501
0.924716
0.880565
0.834864
0.791295
0.75241
0.719854
0.694564
0.676867
0.666557
0.662987
0.663362
0.668594
0.677783
0.689992
0.704345
0.720063
0.736493
0.753113
0.769525
0.785438
0.800642
0.815005
0.828441
0.840916
0.852418
0.862957
0.872563
0.881273
0.889133
0.896192
0.902499
0.908106
0.913066
0.917428
0.921238
0.924544
0.92739
0.929818
0.931866
0.93357
0.93497
0.936089
0.936966
0.937621
0.938087
0.938379
0.938525
0.938542
0.938446
0.938251
0.937971
0.937616
0.937196
0.936716
0.936181
0.935592
0.934952
0.934255
0.933501
0.93268
0.931784
0.930799
0.92971
0.928497
0.92714
0.925602
0.923856
0.921861
0.919564
0.916901
0.913792
0.910163
0.90592
0.900963
0.895176
0.888435
0.880602
0.871538
0.861092
0.849116
0.835467
0.820009
0.802625
0.783217
0.761717
0.73809
0.712332
0.684489
0.654637
0.622897
0.58943
0.554431
0.518124
0.480768
0.442644
0.404055
0.36533
0.326816
0.288887
0.251932
0.216364
0.182604
0.151073
0.122172
0.0962577
0.0736082
0.0543943
0.0386497
0.026256
0.0169418
0.0103062
0.00586046
0.00308469
0.0014861
0.000646843
0.000250532
8.48038e-05
2.45438e-05
5.90893e-06
1.14153e-06
1.68324e-07
1.75627e-08
1.1364e-09
3.35749e-11
0.513763
0.719108
0.767078
0.784762
0.796802
0.811049
0.832419
0.863418
0.904202
0.953508
0.998275
0.999821
0.99997
0.999993
0.984265
0.949525
0.901325
0.846814
0.791847
0.740539
0.695568
0.65859
0.630556
0.611776
0.601896
0.599363
0.601867
0.610136
0.622892
0.638878
0.65698
0.676276
0.696033
0.715702
0.734881
0.753292
0.77075
0.787146
0.80242
0.816558
0.829569
0.841485
0.85235
0.862214
0.871136
0.879179
0.886397
0.892852
0.8986
0.9037
0.908206
0.912168
0.915628
0.918639
0.921237
0.923463
0.925356
0.926949
0.92827
0.929353
0.930221
0.930902
0.931418
0.931788
0.932029
0.93216
0.932191
0.932138
0.93201
0.931814
0.931557
0.931243
0.930877
0.930455
0.929977
0.929441
0.928839
0.928162
0.927399
0.926538
0.925558
0.924436
0.923144
0.921649
0.919912
0.917877
0.915472
0.912631
0.909269
0.905291
0.900585
0.895028
0.888483
0.880795
0.871806
0.861346
0.849241
0.835321
0.819425
0.801405
0.781138
0.75853
0.733522
0.706101
0.676296
0.644195
0.609935
0.573706
0.535751
0.496363
0.45589
0.414716
0.373272
0.332023
0.291464
0.252107
0.214477
0.179083
0.146405
0.116865
0.0907945
0.0684072
0.049775
0.0348122
0.0232764
0.0147871
0.00886272
0.0049711
0.00258524
0.00123322
0.000532899
0.000205546
6.95293e-05
2.01852e-05
4.89378e-06
9.55829e-07
1.43044e-07
1.52028e-08
1.00538e-09
3.04513e-11
0.538584
0.725658
0.766123
0.780446
0.790998
0.804033
0.825712
0.858672
0.902667
0.953803
0.999764
0.999984
1
1
0.978689
0.933596
0.873477
0.807677
0.743026
0.683911
0.632955
0.591742
0.561281
0.541987
0.533372
0.53082
0.536842
0.549642
0.567321
0.588155
0.61075
0.634053
0.657316
0.680026
0.701842
0.72255
0.742018
0.760192
0.777046
0.792602
0.806894
0.819974
0.8319
0.842741
0.852561
0.861436
0.869431
0.87661
0.883037
0.888773
0.893876
0.8984
0.902394
0.905908
0.908984
0.911663
0.913985
0.915986
0.917697
0.919149
0.92037
0.921385
0.922219
0.922893
0.923424
0.923829
0.924127
0.924329
0.924445
0.924484
0.924458
0.924367
0.92422
0.924016
0.923755
0.923439
0.923063
0.922619
0.922099
0.921496
0.920791
0.919967
0.919002
0.917869
0.91653
0.91494
0.913037
0.910756
0.90802
0.904739
0.900804
0.896095
0.890469
0.883767
0.87582
0.866438
0.855428
0.842589
0.827726
0.810648
0.791188
0.769205
0.744593
0.717296
0.68731
0.654697
0.61958
0.582157
0.542697
0.501544
0.459105
0.415857
0.372328
0.329091
0.286749
0.245916
0.207195
0.171148
0.138273
0.108971
0.0835144
0.0620258
0.0444656
0.0306308
0.0201713
0.0126241
0.00745822
0.00412737
0.00212053
0.00100102
0.000428937
0.000164453
5.54428e-05
1.60879e-05
3.91009e-06
7.6787e-07
1.15874e-07
1.24508e-08
8.34409e-10
2.56625e-11
0.557587
0.729165
0.763239
0.774347
0.78294
0.794494
0.816373
0.851455
0.899135
0.954075
0.999999
0.999999
0.999998
0.999999
0.971811
0.91447
0.841034
0.763305
0.688915
0.622258
0.56565
0.520447
0.487835
0.468693
0.462386
0.463115
0.473949
0.492321
0.515646
0.541728
0.568924
0.596119
0.62261
0.647982
0.672006
0.694558
0.7156
0.735127
0.753171
0.769783
0.785026
0.798971
0.811693
0.823268
0.833774
0.843289
0.851882
0.859624
0.866586
0.87283
0.87841
0.883389
0.887817
0.891743
0.89521
0.898265
0.900944
0.903285
0.905322
0.907084
0.9086
0.909895
0.910998
0.911928
0.912702
0.913343
0.913862
0.914277
0.914597
0.914833
0.914994
0.915086
0.915119
0.91509
0.915004
0.91486
0.914656
0.914393
0.914057
0.913646
0.913144
0.912541
0.911811
0.910934
0.909878
0.908603
0.907048
0.905157
0.902855
0.900053
0.896645
0.892503
0.887488
0.881432
0.87415
0.865442
0.855091
0.842875
0.828563
0.811937
0.792797
0.770961
0.746298
0.718724
0.688215
0.654826
0.618692
0.580029
0.539156
0.496467
0.452451
0.407668
0.362737
0.318328
0.275122
0.233802
0.195007
0.15931
0.127182
0.0989601
0.0748276
0.0547994
0.0387211
0.0262845
0.0170564
0.0105211
0.00612928
0.0033473
0.00169889
0.000793319
0.000336808
0.000128181
4.29842e-05
1.24336e-05
3.0192e-06
5.93695e-07
8.98964e-08
9.7108e-09
6.55282e-10
2.03165e-11
0.571416
0.730183
0.758627
0.766287
0.772486
0.782238
0.804122
0.841473
0.893367
0.953204
1
1
0.999998
0.999997
0.96353
0.891934
0.803988
0.714112
0.630425
0.556968
0.495348
0.446399
0.411644
0.393337
0.386743
0.394049
0.413691
0.440804
0.471533
0.503384
0.53491
0.565329
0.594232
0.621432
0.646871
0.670547
0.692502
0.7128
0.731511
0.748715
0.764498
0.778939
0.792127
0.804142
0.815073
0.824992
0.833974
0.842096
0.849421
0.856016
0.861938
0.867247
0.871993
0.876226
0.879994
0.883332
0.886288
0.888895
0.891188
0.893196
0.894948
0.896472
0.897792
0.898931
0.899908
0.90074
0.901443
0.902033
0.902524
0.902923
0.903243
0.903487
0.903664
0.903778
0.903834
0.903829
0.903764
0.903639
0.903446
0.903181
0.902831
0.902385
0.901827
0.901131
0.900272
0.899213
0.897893
0.896259
0.894234
0.891728
0.888635
0.884822
0.880137
0.874406
0.867431
0.858991
0.848857
0.836776
0.8225
0.805787
0.78641
0.764178
0.738936
0.710603
0.67916
0.644681
0.607329
0.567374
0.525188
0.481243
0.436103
0.390409
0.344859
0.300187
0.257121
0.216364
0.178546
0.1442
0.113723
0.0873571
0.0651733
0.0470718
0.0327925
0.0219432
0.0140369
0.00853731
0.00490603
0.00264455
0.00132597
0.000612343
0.000257433
9.7156e-05
3.236e-05
9.3127e-06
2.25365e-06
4.4237e-07
6.69656e-08
7.24132e-09
4.89634e-10
1.52203e-11
0.5805
0.729093
0.752306
0.755701
0.758389
0.767065
0.788655
0.828376
0.885065
0.950973
0.999997
0.999997
0.999998
0.999996
0.953753
0.865798