/*--------------------------------*- C++ -*----------------------------------*\
  =========                 |
  \\      /  F ield         | OpenFOAM: The Open Source CFD Toolbox
   \\    /   O peration     | Website:  https://openfoam.org
    \\  /    A nd           | Version:  13
     \\/     M anipulation  |
\*---------------------------------------------------------------------------*/
FoamFile
{
    format      ascii;
    class       volScalarField;
    location    "259.831886";
    object      T;
}
// * * * * * * * * * * * * * * * * * * * * * * * * * * * * * * * * * * * * * //

dimensions      [0 0 0 1 0 0 0];

internalField   nonuniform List<scalar> 
5712
(
1165.38
1165.31
1165.19
1165.09
1164.91
1164.81
1164.52
1164.44
1164.6
1164.5
1164.91
1164.8
1165.13
1165.03
1165.29
1165.22
1164.83
1164.69
1164.65
1164.46
1164.36
1164.18
1164.19
1163.97
1165.62
1166.03
1165.55
1165.93
1165.45
1165.84
1165.33
1165.7
1165.06
1165.27
1164.86
1165.13
1165.6
1165.38
1164.42
1164.08
1164.24
1163.99
1163.99
1163.71
1163.77
1163.56
1164.83
1164.48
1164.62
1164.36
1165.15
1164.81
1166.49
1166.76
1166.29
1166.58
1166.3
1166.64
1166.07
1166.38
1166.02
1166.48
1165.67
1166.1
1165.4
1165.83
1165.1
1165.53
1164.73
1164.67
1164.44
1164.41
1164.11
1164.03
1163.87
1163.8
1164.98
1165.07
1165.33
1165.35
1164.19
1164.2
1163.97
1164.02
1163.67
1163.6
1163.47
1163.43
1164.7
1164.84
1164.45
1164.65
1165.52
1166.04
1165.72
1166.3
1165.89
1166.42
1166.01
1166.62
1165.21
1165.72
1165.48
1166.05
1164.94
1165.44
1165.29
1165.85
1167.14
1167.74
1167.24
1167.83
1166.96
1167.52
1167.14
1167.71
1166.66
1167.08
1166.97
1167.44
1165.15
1164.41
1165.82
1166.32
1166.87
1164.51
1165.29
1166.09
1166.63
1167.22
1164.32
1165.02
1165.69
1166.33
1166.96
1168.29
1168.56
1168.6
1168.84
1168.01
1168.32
1168.41
1168.67
1167.52
1167.87
1168.08
1168.39
1164.68
1164.96
1165.53
1165.92
1166.32
1166.72
1166.95
1167.34
1167.78
1168.18
1164.44
1164.67
1165.23
1165.62
1165.96
1166.41
1166.69
1167.18
1167.6
1168.12
1164.87
1165.32
1164.55
1164.94
1164.1
1164.23
1163.81
1163.88
1165.32
1165.85
1165.64
1166.2
1164.27
1164.67
1164.09
1164.47
1163.58
1163.65
1163.41
1163.46
1165.03
1165.57
1164.86
1165.38
1166.21
1166.85
1167.3
1168.07
1166.46
1167.13
1167.47
1168.23
1165.97
1166.59
1167.13
1167.9
1165.75
1166.38
1166.9
1167.63
1168.64
1168.75
1168.97
1168.69
1168.74
1168.93
1168.46
1168.6
1168.83
1168.56
1168.61
1168.83
1168.09
1168.28
1168.54
1168.35
1168.44
1168.68
1165.3
1165.69
1166.11
1166.32
1166.66
1167.03
1167.09
1167.39
1167.71
1167.65
1167.89
1168.2
1168.19
1168.31
1168.6
1164.99
1165.43
1165.9
1166.15
1166.61
1167.08
1166.95
1167.35
1167.77
1167.59
1167.89
1168.26
1168.18
1168.34
1168.67
1163.52
1163.38
1163.39
1163.21
1163.9
1163.72
1163.75
1163.54
1163.44
1163.14
1163.4
1163.13
1163.35
1163.09
1163.29
1163.04
1163.09
1163.21
1163.02
1163.16
1163.04
1162.94
1163.07
1162.9
1163.36
1163.18
1163.01
1162.85
1162.9
1162.75
1162.88
1162.73
1162.84
1162.58
1162.89
1162.64
1162.8
1162.53
1162.82
1162.57
1162.77
1162.47
1162.7
1162.43
1162.65
1162.41
1162.52
1162.32
1163.19
1163.06
1163.02
1162.88
1163.59
1163.48
1163.39
1163.28
1162.76
1162.6
1162.91
1162.75
1162.86
1162.73
1162.71
1162.59
1163.21
1163.1
1163.04
1162.95
1162.62
1162.46
1162.48
1162.34
1162.55
1162.31
1162.41
1162.27
1162.66
1162.41
1162.55
1162.38
1162.43
1162.22
1162.29
1162.17
1162.31
1162.13
1162.18
1162.08
1162.85
1162.98
1162.6
1162.74
1162.85
1162.98
1162.59
1162.72
1162.84
1162.96
1162.56
1162.68
1163.3
1163.78
1163.01
1162.77
1162.52
1163.87
1163.4
1163.13
1162.9
1162.63
1163.69
1163.23
1162.9
1162.68
1162.49
1163.19
1163.5
1162.96
1163.25
1163.18
1163.47
1162.92
1163.21
1163.14
1163.41
1162.86
1163.12
1163.99
1164.23
1163.5
1163.74
1163.22
1163.46
1163
1163.25
1162.75
1163
1163.76
1163.9
1163.29
1163.43
1162.97
1163.14
1162.77
1162.97
1162.61
1162.86
1163.03
1163.08
1162.85
1162.85
1163.46
1163.49
1163.24
1163.21
1162.6
1162.66
1162.75
1162.86
1162.71
1162.67
1162.58
1162.52
1163.07
1163
1162.92
1162.83
1162.47
1162.5
1162.35
1162.36
1162.44
1162.57
1162.37
1162.57
1162.58
1162.75
1162.48
1162.71
1162.32
1162.42
1162.27
1162.45
1162.23
1162.31
1162.18
1162.34
1163.91
1164.32
1164.7
1163.76
1164.22
1164.61
1163.85
1164.27
1164.66
1163.69
1164.16
1164.56
1163.77
1164.18
1164.58
1163.58
1164.07
1164.5
1164.54
1164.93
1165.35
1164.06
1164.46
1164.9
1163.79
1164.21
1164.65
1163.59
1164.02
1164.45
1163.47
1163.98
1164.45
1164.15
1164.57
1165.05
1163.69
1164.13
1164.61
1163.44
1163.9
1164.4
1163.33
1163.81
1164.31
1163.35
1163.89
1164.4
1162.46
1162.64
1163.1
1163.95
1162.54
1162.73
1163.2
1164.06
1162.43
1162.61
1163.07
1163.93
1162.48
1162.68
1163.16
1164.02
1162.39
1162.58
1163.02
1163.85
1162.37
1162.58
1163.05
1163.91
1162.38
1162.62
1163.13
1164
1162.33
1162.6
1163.13
1164.01
1162.28
1162.51
1162.97
1163.82
1162.3
1162.54
1162.97
1163.72
1162.36
1162.56
1162.98
1163.76
1162.38
1162.6
1162.99
1163.71
1162.23
1162.48
1162.97
1163.85
1162.23
1162.49
1162.94
1163.72
1162.16
1162.44
1162.95
1163.83
1162.17
1162.45
1162.91
1163.69
1162.48
1162.63
1163.05
1163.85
1162.59
1162.71
1163.07
1163.77
1162.47
1162.63
1163.04
1163.83
1162.58
1162.72
1163.07
1163.76
1162.46
1162.62
1163.02
1163.79
1162.56
1162.71
1163.06
1163.75
1162.45
1162.63
1163.01
1163.74
1162.54
1162.7
1163.05
1163.72
1162.46
1162.66
1163.02
1163.69
1162.75
1162.86
1163.18
1163.68
1162.94
1163.03
1163.36
1163.83
1162.73
1162.85
1163.17
1163.67
1162.92
1163.02
1163.35
1163.82
1162.69
1162.83
1163.16
1163.66
1162.88
1163
1163.34
1163.82
1162.64
1162.8
1163.14
1163.64
1162.83
1162.98
1163.33
1163.8
1162.57
1162.76
1163.11
1163.62
1162.77
1162.95
1163.31
1163.79
1162.43
1162.68
1163.07
1163.6
1162.61
1162.86
1163.26
1163.75
1162.5
1162.72
1163.09
1163.61
1162.69
1162.9
1163.28
1163.77
1162.37
1162.65
1163.05
1163.59
1162.54
1162.82
1163.23
1163.73
1162.32
1162.61
1163.03
1163.57
1162.48
1162.78
1163.2
1163.71
1165.24
1166.29
1167.18
1167.91
1168.47
1165.31
1166.34
1167.23
1167.96
1168.52
1165.24
1166.29
1167.18
1167.91
1168.47
1165.3
1166.34
1167.23
1167.96
1168.52
1165.22
1166.28
1167.18
1167.9
1168.47
1165.25
1166.3
1167.19
1167.92
1168.48
1165.28
1166.32
1167.22
1167.95
1168.51
1165.26
1166.31
1167.21
1167.94
1168.5
1165.21
1166.28
1167.17
1167.9
1168.46
1165.27
1166.35
1167.25
1167.98
1168.54
1165.22
1166.29
1167.19
1167.92
1168.48
1165.28
1166.37
1167.27
1168
1168.56
1165.21
1166.28
1167.17
1167.9
1168.47
1165.27
1166.36
1167.26
1167.99
1168.56
1165.2
1166.26
1167.17
1167.9
1168.46
1165.27
1166.36
1167.27
1168
1168.56
1165.25
1166.32
1167.21
1167.94
1168.5
1165.33
1166.41
1167.3
1168.03
1168.59
1165.25
1166.32
1167.21
1167.94
1168.5
1165.33
1166.41
1167.3
1168.03
1168.59
1165.25
1166.32
1167.22
1167.95
1168.51
1165.33
1166.41
1167.31
1168.04
1168.6
1165.27
1166.36
1167.26
1167.99
1168.55
1165.34
1166.43
1167.33
1168.05
1168.61
1165.32
1166.41
1167.31
1168.04
1168.6
1169.87
1170.04
1169.79
1169.97
1169.65
1169.85
1169.47
1169.7
1169.3
1169.56
1169.02
1169.32
1169.16
1169.46
1168.88
1169.17
1168.73
1169
1171.76
1173.84
1175.58
1176.94
1177.87
1171.73
1173.82
1175.59
1176.95
1177.9
1171.73
1173.82
1175.57
1176.93
1177.86
1171.7
1173.81
1175.58
1176.95
1177.89
1171.66
1173.78
1175.55
1176.91
1177.85
1171.64
1173.77
1175.55
1176.93
1177.88
1171.57
1173.73
1175.51
1176.89
1177.82
1171.55
1173.72
1175.52
1176.91
1177.85
1171.46
1173.66
1175.46
1176.85
1177.79
1171.46
1173.66
1175.48
1176.87
1177.83
1171.22
1173.48
1175.33
1176.74
1177.7
1171.24
1173.51
1175.36
1176.78
1177.74
1171.34
1173.57
1175.4
1176.8
1177.75
1171.36
1173.59
1175.42
1176.83
1177.79
1171.1
1173.39
1175.26
1176.69
1177.64
1171.12
1173.41
1175.28
1176.72
1177.68
1170.98
1173.29
1175.18
1176.62
1177.59
1170.98
1173.3
1175.2
1176.65
1177.62
1163.09
1163.36
1163.6
1163.29
1163.68
1163.64
1163.62
1163.57
1163.71
1163.64
1164.08
1163.99
1164.26
1164.16
1163.99
1163.91
1163.88
1163.83
1163.86
1163.82
1163.3
1163.22
1164.01
1164.32
1164.42
1164.45
1164.16
1164.05
1164.41
1163.98
1164.73
1165.21
1164.05
1164.19
1164.56
1164.15
1164.32
1164.34
1163.74
1163.7
1163.9
1163.83
1163.74
1163.66
1163.74
1163.86
1164.27
1164.19
1164.04
1163.96
1163.43
1163.32
1163.5
1163.41
1163.53
1163.56
1163.77
1164.04
1163.77
1162.81
1162.56
1162.45
1162.46
1162.6
1162.86
1162.66
1162.57
1162.6
1162.77
1163.77
1163.65
1163.64
1163.74
1163.95
1164.09
1163.99
1163.99
1164.09
1164.3
1164.19
1164.08
1164.08
1164.18
1164.38
1164.22
1164.12
1164.12
1164.22
1164.43
1163.93
1163.82
1163.81
1163.91
1164.11
1163.51
1163.19
1163.02
1162.98
1163.08
1163.85
1163.5
1163.32
1163.28
1163.39
1163.6
1163.36
1163.23
1163.23
1163.39
1164.21
1163.87
1163.71
1163.68
1163.82
1164.7
1164.35
1164.18
1164.16
1164.3
1163.76
1163.58
1163.51
1163.56
1163.75
1163.85
1163.63
1163.52
1163.54
1163.71
1164.23
1164.02
1163.91
1163.94
1164.11
1163.87
1163.72
1163.67
1163.73
1163.93
1164.02
1163.85
1163.78
1163.84
1164.02
1164.07
1163.92
1163.88
1163.95
1164.14
1163.25
1162.98
1162.84
1162.82
1162.93
1163.37
1163.17
1163.07
1163.1
1163.27
1163.62
1163.46
1163.41
1163.47
1163.66
1163.56
1163.42
1163.37
1163.44
1163.64
1163.45
1163.28
1163.22
1163.27
1163.46
1163.38
1163.23
1163.19
1163.26
1163.45
1163.49
1163.36
1163.33
1163.42
1163.62
1163.61
1163.48
1163.45
1163.54
1163.74
1164.02
1163.9
1163.87
1163.96
1164.16
1163.95
1163.83
1163.82
1163.91
1164.11
1163.78
1163.64
1163.6
1163.68
1163.88
1163.71
1163.58
1163.55
1163.64
1163.84
1162.96
1162.7
1162.58
1162.58
1162.71
1162.98
1162.79
1162.7
1162.74
1162.92
1163.11
1162.88
1162.77
1162.78
1162.92
1163.11
1162.94
1162.87
1162.93
1163.11
1163.25
1163.09
1163.04
1163.1
1163.29
1163.24
1163.04
1162.95
1162.99
1163.16
1163.51
1163.38
1163.35
1163.43
1163.63
1163.8
1163.68
1163.67
1163.76
1163.96
1163.5
1163.36
1163.32
1163.4
1163.6
1163.28
1163.43
1163.29
1163.45
1162.92
1163.09
1162.92
1163.06
1163.3
1163.32
1163.46
1163.43
1162.93
1162.94
1163.08
1163.04
1163.66
1164.02
1163.79
1164.14
1163.66
1163.99
1163.81
1164.14
1163.82
1163.68
1163.74
1163.65
1163.94
1164.08
1163.65
1163.81
1163.58
1163.76
1163.29
1163.46
1163.18
1163.35
1164
1164.18
1163.9
1164.1
1164.27
1164.48
1164.36
1164.65
1164.46
1164.74
1164.34
1164.68
1164.47
1164.77
1164.28
1164.75
1164.37
1164.78
1164.54
1164.97
1164.79
1165.23
1163.44
1163.53
1163.51
1163.62
1162.97
1163
1163.05
1163.07
1163.96
1164.23
1163.89
1164.14
1163.63
1163.73
1163.79
1163.86
1163.16
1163.17
1163.3
1163.29
1164.08
1164.34
1164.25
1164.49
1164.42
1164.94
1164.86
1165.45
1164.38
1164.94
1164.79
1165.41
1164.54
1165.04
1164.97
1165.55
1164.72
1165.21
1165.12
1165.69
1164.39
1164.56
1164.71
1164.98
1164.36
1164.5
1164.76
1165.02
1164.31
1164.39
1164.85
1165.06
1163.42
1162.93
1163.9
1164.41
1165.05
1162.92
1163.38
1163.86
1164.39
1165.17
1162.96
1163.48
1164.08
1164.74
1165.41
1164.84
1164.97
1165.7
1165.95
1164.71
1164.83
1165.65
1165.9
1164.52
1164.62
1165.59
1165.84
1162.93
1162.99
1163.42
1163.5
1163.94
1164.02
1164.56
1164.66
1165.67
1165.94
1162.96
1163.03
1163.53
1163.7
1164.19
1164.4
1164.95
1165.2
1165.97
1166.29
1163.67
1163.96
1163.75
1164.04
1163.01
1163.04
1163.08
1163.08
1164.48
1164.91
1164.39
1164.8
1163.81
1164.16
1163.94
1164.31
1163.16
1163.18
1163.27
1163.31
1164.55
1165.04
1164.7
1165.21
1165.37
1165.92
1166.49
1167.19
1165.22
1165.76
1166.29
1166.95
1165.48
1166.06
1166.66
1167.39
1165.58
1166.2
1166.75
1167.47
1165.01
1165.11
1165.78
1165.79
1164.88
1165
1165.75
1165.75
1164.7
1164.87
1165.72
1165.72
1163.13
1163.38
1163.65
1163.88
1164.15
1164.35
1164.77
1164.95
1165.77
1165.77
1163.16
1163.43
1163.93
1164.17
1164.6
1164.78
1165.28
1165.35
1165.97
1165.91
1162.33
1162.32
1162.48
1162.41
1162.59
1162.58
1162.75
1162.69
1162.14
1162
1162.28
1162.14
1162.14
1162.02
1162.3
1162.16
1162.27
1162.14
1162.25
1162.16
1162.05
1162.17
1162.56
1162.72
1162.83
1162.99
1162.46
1162.65
1162.4
1162.57
1162.35
1162.53
1161.92
1161.87
1162.06
1161.99
1161.92
1161.86
1162.06
1161.98
1161.94
1161.84
1162.04
1161.93
1162.2
1162.08
1162.36
1162.2
1162.27
1162.26
1162.34
1162.31
1162.57
1162.57
1162.65
1162.63
1162.13
1162.09
1162.07
1162.05
1162.44
1162.38
1162.57
1162.48
1162.76
1162.72
1162.89
1162.82
1162.23
1162.15
1162.35
1162.24
1161.99
1161.88
1161.96
1161.91
1161.93
1161.84
1161.93
1161.89
1162.08
1161.95
1162.02
1161.95
1162.19
1162.04
1162.09
1162.01
1161.86
1161.89
1161.82
1161.86
1161.88
1161.9
1161.82
1161.86
1161.9
1161.92
1161.83
1161.87
1162.24
1162.54
1162.05
1161.92
1161.85
1162.54
1162.26
1162.07
1161.94
1161.88
1162.53
1162.24
1162.04
1161.93
1161.89
1161.98
1162.15
1161.97
1162.15
1161.98
1162.14
1161.96
1162.14
1161.99
1162.13
1161.95
1162.11
1162.54
1162.61
1162.26
1162.34
1162.08
1162.19
1161.97
1162.09
1161.94
1162.09
1162.51
1162.54
1162.23
1162.26
1162.04
1162.11
1161.95
1162.06
1161.94
1162.09
1162.22
1162.2
1162.27
1162.23
1162.52
1162.48
1162.59
1162.51
1162.09
1162.1
1162.04
1162.08
1162.37
1162.3
1162.46
1162.4
1162.69
1162.59
1162.79
1162.7
1162.16
1162.16
1162.25
1162.25
1161.99
1162.07
1162
1162.14
1161.96
1162.06
1161.96
1162.11
1162.05
1162.12
1162.05
1162.19
1162.13
1162.21
1162.11
1162.26
1162.36
1162.55
1162.42
1162.64
1162.33
1162.54
1162.4
1162.64
1162.31
1162.54
1162.37
1162.64
1162.74
1162.99
1162.49
1162.75
1162.35
1162.61
1162.27
1162.54
1162.34
1162.67
1162.65
1162.94
1162.39
1162.69
1162.28
1162.59
1162.27
1162.59
1162.37
1162.74
1161.97
1162.3
1162.87
1163.79
1162.09
1162.42
1162.99
1163.92
1161.96
1162.29
1162.86
1163.79
1162.08
1162.4
1162.97
1163.89
1161.96
1162.29
1162.82
1163.72
1162.03
1162.35
1162.89
1163.8
1162.15
1162.46
1163.02
1163.93
1162.25
1162.54
1163.09
1163.98
1161.99
1162.31
1162.83
1163.72
1162.05
1162.37
1162.84
1163.63
1161.97
1162.3
1162.8
1163.64
1162.04
1162.36
1162.83
1163.59
1162.04
1162.35
1162.88
1163.78
1162.07
1162.39
1162.86
1163.66
1162.1
1162.39
1162.92
1163.8
1162.11
1162.41
1162.89
1163.67
1161.93
1162.27
1162.8
1163.68
1161.99
1162.32
1162.8
1163.58
1161.94
1162.27
1162.8
1163.67
1162
1162.33
1162.81
1163.58
1161.96
1162.29
1162.8
1163.65
1162.01
1162.34
1162.82
1163.58
1161.99
1162.32
1162.8
1163.6
1162.03
1162.36
1162.83
1163.57
1162.04
1162.38
1162.83
1163.55
1162.11
1162.44
1162.9
1163.46
1162.28
1162.61
1163.07
1163.6
1162.11
1162.44
1162.9
1163.46
1162.28
1162.61
1163.07
1163.6
1162.11
1162.45
1162.9
1163.47
1162.28
1162.61
1163.08
1163.6
1162.12
1162.45
1162.9
1163.47
1162.28
1162.62
1163.08
1163.61
1162.13
1162.46
1162.9
1163.46
1162.29
1162.63
1163.09
1163.62
1162.18
1162.51
1162.95
1163.5
1162.33
1162.67
1163.12
1163.64
1162.15
1162.48
1162.93
1163.48
1162.3
1162.64
1163.1
1163.63
1162.22
1162.54
1162.98
1163.53
1162.37
1162.7
1163.15
1163.67
1162.26
1162.57
1163
1163.55
1162.42
1162.74
1163.18
1163.69
1165.15
1166.24
1167.15
1167.89
1168.45
1165.22
1166.29
1167.2
1167.94
1168.5
1165.15
1166.24
1167.15
1167.89
1168.45
1165.22
1166.29
1167.2
1167.94
1168.5
1165.15
1166.24
1167.15
1167.89
1168.45
1165.19
1166.26
1167.17
1167.9
1168.47
1165.23
1166.3
1167.2
1167.94
1168.5
1165.24
1166.3
1167.2
1167.94
1168.5
1165.16
1166.24
1167.15
1167.89
1168.45
1165.22
1166.32
1167.23
1167.97
1168.53
1165.16
1166.25
1167.17
1167.9
1168.47
1165.22
1166.33
1167.25
1167.98
1168.55
1165.17
1166.25
1167.16
1167.89
1168.46
1165.24
1166.34
1167.25
1167.98
1168.55
1165.18
1166.26
1167.16
1167.89
1168.46
1165.26
1166.35
1167.26
1168
1168.56
1165.16
1166.26
1167.17
1167.91
1168.48
1165.23
1166.35
1167.27
1168.01
1168.57
1165.16
1166.26
1167.18
1167.92
1168.48
1165.23
1166.35
1167.27
1168.01
1168.57
1165.17
1166.28
1167.19
1167.93
1168.5
1165.24
1166.36
1167.28
1168.02
1168.58
1165.2
1166.32
1167.23
1167.97
1168.53
1165.27
1166.38
1167.3
1168.04
1168.6
1165.25
1166.37
1167.28
1168.02
1168.58
1167.52
1167.72
1167.55
1167.75
1167.61
1167.82
1167.71
1167.92
1167.87
1168.05
1168.29
1168.52
1168.1
1168.3
1168.45
1168.7
1168.59
1168.85
1170.06
1172.62
1174.67
1176.22
1177.24
1170
1172.59
1174.67
1176.23
1177.26
1170.08
1172.64
1174.69
1176.23
1177.24
1170.03
1172.61
1174.68
1176.24
1177.27
1170.13
1172.67
1174.71
1176.25
1177.26
1170.08
1172.65
1174.71
1176.26
1177.29
1170.21
1172.73
1174.75
1176.28
1177.29
1170.15
1172.7
1174.74
1176.29
1177.31
1170.33
1172.8
1174.81
1176.32
1177.33
1170.25
1172.76
1174.79
1176.32
1177.34
1170.6
1172.99
1174.95
1176.43
1177.42
1170.55
1172.96
1174.93
1176.44
1177.44
1170.46
1172.89
1174.87
1176.37
1177.37
1170.39
1172.85
1174.85
1176.37
1177.39
1170.73
1173.09
1175.02
1176.49
1177.48
1170.7
1173.08
1175.02
1176.51
1177.5
1170.86
1173.19
1175.1
1176.56
1177.53
1170.84
1173.19
1175.11
1176.58
1177.56
1162.88
1163.13
1162.95
1162.68
1162.33
1162.48
1162.33
1162.5
1162.6
1162.77
1162.6
1162.74
1165.49
1165.44
1165.33
1165.15
1164.9
1164.61
1165.5
1165.46
1165.35
1165.18
1164.96
1164.7
1165.6
1165.78
1165.55
1165.72
1165.42
1165.57
1165.22
1165.34
1164.94
1165.04
1164.63
1164.72
1164.3
1164
1163.74
1163.53
1163.38
1163.26
1164.42
1164.15
1163.91
1163.71
1163.55
1163.44
1165.27
1165.19
1165.2
1165.32
1165.53
1165.23
1165.14
1165.16
1165.27
1165.48
1165.11
1165.03
1165.04
1165.15
1165.37
1164.93
1164.84
1164.85
1164.97
1165.18
1164.68
1164.59
1164.6
1164.71
1164.92
1164.39
1164.29
1164.29
1164.4
1164.61
1165.29
1165.21
1165.22
1165.33
1165.55
1165.25
1165.16
1165.18
1165.29
1165.5
1165.14
1165.05
1165.06
1165.18
1165.39
1164.97
1164.88
1164.89
1165
1165.21
1164.74
1164.65
1164.66
1164.77
1164.98
1164.48
1164.38
1164.38
1164.49
1164.7
1165.39
1165.31
1165.32
1165.43
1165.65
1165.56
1165.48
1165.5
1165.61
1165.82
1165.34
1165.25
1165.27
1165.38
1165.6
1165.51
1165.42
1165.44
1165.55
1165.76
1165.21
1165.12
1165.14
1165.25
1165.46
1165.36
1165.27
1165.29
1165.4
1165.61
1165
1164.91
1164.93
1165.04
1165.25
1165.12
1165.03
1165.05
1165.16
1165.37
1164.72
1164.63
1164.64
1164.75
1164.97
1164.82
1164.72
1164.73
1164.84
1165.05
1164.4
1164.31
1164.31
1164.42
1164.63
1164.5
1164.4
1164.41
1164.51
1164.72
1164.06
1163.96
1163.96
1164.06
1164.27
1163.76
1163.65
1163.63
1163.73
1163.94
1163.49
1163.36
1163.34
1163.43
1163.63
1163.26
1163.12
1163.08
1163.15
1163.35
1163.09
1162.93
1162.87
1162.93
1163.12
1162.96
1162.79
1162.72
1162.78
1162.97
1164.19
1164.09
1164.09
1164.19
1164.4
1163.91
1163.8
1163.79
1163.89
1164.1
1163.66
1163.54
1163.52
1163.61
1163.81
1163.45
1163.31
1163.28
1163.36
1163.56
1163.28
1163.13
1163.09
1163.17
1163.36
1163.16
1163.01
1162.97
1163.04
1163.23
1165.46
1165.37
1165.21
1164.98
1164.69
1164.35
1165.48
1165.39
1165.24
1165.02
1164.75
1164.45
1165.58
1165.75
1165.48
1165.64
1165.3
1165.44
1165.05
1165.15
1164.72
1164.8
1164.34
1164.42
1163.99
1163.66
1163.4
1163.23
1163.16
1163.18
1164.14
1163.85
1163.62
1163.46
1163.38
1163.38
1165.25
1165.16
1165.18
1165.29
1165.51
1165.16
1165.07
1165.09
1165.2
1165.41
1164.99
1164.91
1164.92
1165.04
1165.25
1164.76
1164.68
1164.69
1164.8
1165.02
1164.47
1164.38
1164.39
1164.5
1164.72
1164.12
1164.03
1164.04
1164.15
1164.36
1165.27
1165.18
1165.2
1165.31
1165.53
1165.18
1165.09
1165.11
1165.22
1165.43
1165.02
1164.94
1164.95
1165.06
1165.28
1164.8
1164.72
1164.73
1164.84
1165.06
1164.53
1164.44
1164.45
1164.57
1164.78
1164.23
1164.13
1164.14
1164.25
1164.47
1165.37
1165.28
1165.3
1165.41
1165.62
1165.54
1165.46
1165.47
1165.58
1165.8
1165.26
1165.18
1165.19
1165.31
1165.52
1165.43
1165.34
1165.36
1165.47
1165.69
1165.09
1165
1165.01
1165.13
1165.34
1165.23
1165.15
1165.16
1165.27
1165.49
1164.83
1164.74
1164.75
1164.87
1165.08
1164.94
1164.85
1164.86
1164.98
1165.19
1164.5
1164.41
1164.42
1164.53
1164.75
1164.58
1164.49
1164.5
1164.61
1164.83
1164.12
1164.03
1164.04
1164.15
1164.36
1164.2
1164.11
1164.11
1164.22
1164.44
1163.76
1163.66
1163.66
1163.77
1163.98
1163.42
1163.32
1163.31
1163.41
1163.62
1163.15
1163.03
1163.02
1163.11
1163.32
1162.96
1162.83
1162.8
1162.88
1163.08
1162.88
1162.72
1162.68
1162.75
1162.94
1162.88
1162.71
1162.65
1162.71
1162.9
1163.91
1163.81
1163.81
1163.92
1164.13
1163.62
1163.51
1163.51
1163.61
1163.82
1163.37
1163.26
1163.24
1163.34
1163.55
1163.2
1163.08
1163.05
1163.14
1163.34
1163.11
1162.97
1162.94
1163.02
1163.22
1163.1
1162.95
1162.91
1162.98
1163.18
1163.17
1163.12
1163.61
1163.98
1164
1164.09
1163.75
1162.94
1163.05
1162.98
1163.29
1163.24
1163.2
1163.43
1163.47
1163.61
1162.92
1162.94
1163.2
1163.22
1163.07
1163.11
1163.31
1163.36
1163.69
1163.69
1163.41
1163.41
1163.04
1163.03
1162.91
1163.01
1163.04
1162.93
1163.29
1163.58
1163.22
1162.69
1162.45
1162.35
1162.37
1162.51
1162.76
1162.56
1162.48
1162.51
1162.69
1163.38
1163.28
1163.27
1163.38
1163.59
1163.76
1163.66
1163.66
1163.77
1163.99
1163.78
1163.68
1163.68
1163.79
1164
1163.86
1163.77
1163.77
1163.88
1164.1
1163.52
1163.42
1163.42
1163.53
1163.74
1162.52
1162.31
1162.22
1162.25
1162.39
1162.64
1162.43
1162.35
1162.39
1162.55
1162.67
1162.5
1162.44
1162.49
1162.68
1162.93
1162.74
1162.68
1162.73
1162.91
1162.98
1162.85
1162.82
1162.91
1163.11
1162.91
1162.76
1162.72
1162.79
1162.98
1163.18
1163.05
1163.04
1163.13
1163.33
1163.22
1163.09
1163.07
1163.15
1163.36
1163.37
1163.25
1163.23
1163.33
1163.53
1162.5
1162.29
1162.21
1162.24
1162.39
1162.65
1162.48
1162.43
1162.5
1162.69
1162.94
1162.82
1162.79
1162.88
1163.08
1162.97
1162.85
1162.83
1162.92
1163.13
1162.8
1162.67
1162.63
1162.71
1162.92
1162.85
1162.72
1162.7
1162.78
1162.99
1163.07
1162.95
1162.93
1163.03
1163.24
1163.12
1163
1162.99
1163.09
1163.3
1163.45
1163.34
1163.34
1163.44
1163.65
1163.46
1163.35
1163.35
1163.45
1163.67
1163.17
1163.05
1163.04
1163.13
1163.34
1163.17
1163.06
1163.05
1163.15
1163.36
1162.59
1162.36
1162.27
1162.3
1162.44
1162.71
1162.52
1162.45
1162.5
1162.69
1162.56
1162.37
1162.29
1162.33
1162.5
1162.72
1162.57
1162.52
1162.59
1162.78
1162.77
1162.64
1162.6
1162.68
1162.88
1162.64
1162.47
1162.42
1162.48
1162.67
1163.04
1162.92
1162.91
1163
1163.21
1163.34
1163.24
1163.23
1163.34
1163.55
1162.97
1162.85
1162.83
1162.92
1163.13
1163.33
1163.13
1163.05
1163.08
1163.22
1163.48
1163.23
1163.25
1162.87
1162.86
1163.27
1163.3
1162.88
1162.89
1163.62
1164.03
1163.63
1164
1163.67
1163.65
1163.93
1163.22
1163.24
1162.85
1162.84
1163.26
1163.29
1162.87
1162.89
1163.65
1164.08
1163.65
1164.03
1163.68
1163.65
1163.96
1163.23
1163.25
1162.85
1162.84
1163.27
1163.3
1162.87
1162.89
1163.67
1164.19
1163.67
1164.13
1163.7
1163.67
1164.04
1163.3
1163.32
1162.91
1162.9
1163.34
1163.38
1162.93
1162.96
1163.77
1164.32
1163.77
1164.25
1163.8
1163.76
1164.15
1163.43
1163.45
1163.05
1163.03
1163.47
1163.52
1163.07
1163.09
1163.9
1164.42
1163.9
1164.37
1163.92
1163.89
1164.26
1163.67
1163.68
1163.29
1163.28
1163.7
1163.74
1163.31
1163.33
1164.11
1164.59
1164.1
1164.54
1164.12
1164.09
1164.43
1162.28
1162.27
1162.54
1162.54
1162.28
1162.29
1162.55
1162.55
1162.09
1161.94
1162.09
1161.96
1162.1
1162.12
1162.01
1162.26
1162.26
1162.52
1162.52
1162.27
1162.28
1162.53
1162.54
1162.06
1161.94
1162.07
1161.97
1162.09
1162.12
1162.01
1162.25
1162.26
1162.52
1162.51
1162.27
1162.29
1162.53
1162.55
1162.07
1161.99
1162.09
1162.02
1162.11
1162.15
1162.06
1162.32
1162.32
1162.58
1162.57
1162.35
1162.37
1162.6
1162.62
1162.16
1162.11
1162.18
1162.14
1162.21
1162.25
1162.18
1162.46
1162.46
1162.72
1162.71
1162.49
1162.52
1162.73
1162.75
1162.31
1162.29
1162.33
1162.31
1162.37
1162.41
1162.34
1162.71
1162.72
1162.97
1162.96
1162.75
1162.77
1162.98
1163
1162.57
1162.52
1162.59
1162.54
1162.62
1162.66
1162.58
1165.39
1165.32
1165.2
1165.09
1164.92
1164.81
1164.53
1164.44
1164.6
1164.5
1164.91
1164.8
1165.13
1165.03
1165.31
1165.24
1164.83
1164.7
1164.65
1164.46
1164.36
1164.18
1164.19
1163.97
1165.63
1166.03
1165.56
1165.94
1165.45
1165.84
1165.34
1165.7
1165.06
1165.27
1164.86
1165.13
1165.6
1165.38
1164.42
1164.08
1164.24
1163.99
1163.99
1163.71
1163.77
1163.56
1164.83
1164.48
1164.62
1164.36
1165.15
1164.81
1166.49
1166.77
1166.3
1166.59
1166.3
1166.64
1166.07
1166.38
1166.02
1166.48
1165.67
1166.1
1165.4
1165.83
1165.1
1165.53
1164.73
1164.67
1164.44
1164.41
1164.11
1164.03
1163.87
1163.8
1164.99
1165.07
1165.33
1165.35
1164.19
1164.2
1163.97
1164.02
1163.67
1163.6
1163.47
1163.43
1164.7
1164.84
1164.45
1164.65
1165.52
1166.04
1165.72
1166.3
1165.89
1166.42
1166.01
1166.62
1165.21
1165.72
1165.48
1166.05
1164.94
1165.44
1165.29
1165.85
1167.15
1167.75
1167.24
1167.84
1166.96
1167.52
1167.14
1167.71
1166.66
1167.09
1166.98
1167.44
1165.15
1164.41
1165.82
1166.32
1166.87
1164.51
1165.29
1166.09
1166.63
1167.22
1164.32
1165.02
1165.69
1166.33
1166.96
1168.3
1168.57
1168.6
1168.84
1168.01
1168.32
1168.41
1168.67
1167.53
1167.87
1168.08
1168.39
1164.68
1164.96
1165.53
1165.92
1166.32
1166.72
1166.95
1167.34
1167.78
1168.18
1164.45
1164.67
1165.23
1165.62
1165.96
1166.41
1166.69
1167.18
1167.61
1168.12
1164.87
1165.32
1164.55
1164.94
1164.1
1164.23
1163.81
1163.88
1165.32
1165.85
1165.64
1166.2
1164.27
1164.67
1164.09
1164.47
1163.58
1163.65
1163.41
1163.46
1165.04
1165.57
1164.86
1165.38
1166.21
1166.85
1167.3
1168.07
1166.46
1167.13
1167.47
1168.23
1165.97
1166.59
1167.14
1167.9
1165.75
1166.38
1166.9
1167.63
1168.65
1168.76
1168.97
1168.7
1168.74
1168.94
1168.46
1168.6
1168.83
1168.56
1168.61
1168.83
1168.09
1168.28
1168.54
1168.35
1168.44
1168.68
1165.3
1165.69
1166.11
1166.32
1166.66
1167.03
1167.09
1167.39
1167.71
1167.65
1167.89
1168.2
1168.19
1168.31
1168.6
1164.99
1165.43
1165.9
1166.15
1166.61
1167.08
1166.95
1167.35
1167.77
1167.59
1167.89
1168.26
1168.18
1168.34
1168.67
1163.52
1163.38
1163.39
1163.21
1163.9
1163.72
1163.75
1163.54
1163.44
1163.14
1163.41
1163.13
1163.35
1163.09
1163.29
1163.04
1163.09
1163.21
1163.02
1163.16
1163.04
1162.94
1163.07
1162.9
1163.36
1163.18
1163.01
1162.85
1162.9
1162.75
1162.88
1162.73
1162.85
1162.58
1162.9
1162.65
1162.81
1162.53
1162.82
1162.57
1162.77
1162.47
1162.7
1162.43
1162.65
1162.41
1162.52
1162.32
1163.19
1163.06
1163.02
1162.88
1163.59
1163.48
1163.39
1163.28
1162.76
1162.6
1162.91
1162.75
1162.87
1162.73
1162.71
1162.59
1163.21
1163.1
1163.04
1162.95
1162.63
1162.46
1162.48
1162.34
1162.55
1162.31
1162.41
1162.27
1162.66
1162.41
1162.55
1162.38
1162.43
1162.22
1162.29
1162.17
1162.31
1162.13
1162.18
1162.08
1162.85
1162.98
1162.61
1162.74
1162.85
1162.98
1162.59
1162.72
1162.84
1162.96
1162.56
1162.68
1163.3
1163.78
1163.01
1162.77
1162.52
1163.87
1163.4
1163.13
1162.9
1162.63
1163.69
1163.23
1162.9
1162.68
1162.49
1163.2
1163.5
1162.96
1163.25
1163.18
1163.47
1162.92
1163.21
1163.14
1163.41
1162.86
1163.12
1163.99
1164.23
1163.5
1163.74
1163.22
1163.46
1163
1163.25
1162.75
1163
1163.76
1163.9
1163.29
1163.43
1162.97
1163.14
1162.77
1162.97
1162.61
1162.86
1163.03
1163.08
1162.85
1162.85
1163.46
1163.49
1163.24
1163.21
1162.6
1162.66
1162.75
1162.86
1162.71
1162.67
1162.58
1162.52
1163.07
1163
1162.92
1162.83
1162.47
1162.5
1162.35
1162.36
1162.44
1162.57
1162.37
1162.57
1162.58
1162.75
1162.48
1162.71
1162.32
1162.42
1162.27
1162.45
1162.23
1162.31
1162.18
1162.34
1163.91
1164.32
1164.7
1163.76
1164.22
1164.61
1163.85
1164.27
1164.66
1163.69
1164.16
1164.56
1163.77
1164.18
1164.58
1163.59
1164.07
1164.5
1164.54
1164.93
1165.36
1164.06
1164.46
1164.9
1163.79
1164.21
1164.65
1163.59
1164.02
1164.45
1163.47
1163.98
1164.45
1164.15
1164.57
1165.05
1163.69
1164.13
1164.61
1163.44
1163.9
1164.4
1163.33
1163.81
1164.31
1163.35
1163.89
1164.4
1162.47
1162.64
1163.1
1163.95
1162.54
1162.73
1163.2
1164.06
1162.43
1162.61
1163.07
1163.93
1162.48
1162.68
1163.16
1164.02
1162.39
1162.58
1163.02
1163.85
1162.37
1162.58
1163.05
1163.91
1162.38
1162.62
1163.13
1164
1162.33
1162.6
1163.13
1164.01
1162.28
1162.51
1162.97
1163.82
1162.3
1162.54
1162.97
1163.72
1162.36
1162.56
1162.98
1163.76
1162.38
1162.6
1162.99
1163.71
1162.23
1162.48
1162.97
1163.85
1162.23
1162.49
1162.94
1163.72
1162.16
1162.44
1162.95
1163.83
1162.17
1162.45
1162.91
1163.69
1162.48
1162.63
1163.05
1163.85
1162.59
1162.71
1163.07
1163.77
1162.47
1162.63
1163.04
1163.83
1162.58
1162.72
1163.07
1163.76
1162.46
1162.62
1163.02
1163.79
1162.56
1162.71
1163.06
1163.75
1162.45
1162.63
1163.01
1163.74
1162.54
1162.7
1163.05
1163.72
1162.46
1162.66
1163.02
1163.69
1162.75
1162.86
1163.18
1163.68
1162.94
1163.03
1163.36
1163.83
1162.73
1162.85
1163.17
1163.67
1162.92
1163.02
1163.35
1163.82
1162.7
1162.83
1163.16
1163.66
1162.88
1163
1163.34
1163.82
1162.64
1162.8
1163.14
1163.64
1162.83
1162.98
1163.33
1163.8
1162.57
1162.76
1163.11
1163.62
1162.77
1162.95
1163.31
1163.79
1162.43
1162.68
1163.07
1163.6
1162.62
1162.86
1163.26
1163.75
1162.5
1162.72
1163.09
1163.61
1162.69
1162.9
1163.28
1163.77
1162.37
1162.65
1163.05
1163.59
1162.54
1162.82
1163.23
1163.73
1162.32
1162.61
1163.03
1163.57
1162.48
1162.78
1163.2
1163.71
1165.24
1166.29
1167.18
1167.91
1168.47
1165.31
1166.35
1167.24
1167.96
1168.52
1165.24
1166.29
1167.18
1167.91
1168.47
1165.3
1166.34
1167.23
1167.95
1168.52
1165.22
1166.28
1167.18
1167.9
1168.47
1165.25
1166.3
1167.19
1167.92
1168.48
1165.28
1166.32
1167.22
1167.95
1168.51
1165.26
1166.31
1167.21
1167.94
1168.5
1165.21
1166.27
1167.17
1167.9
1168.46
1165.27
1166.35
1167.25
1167.98
1168.54
1165.22
1166.29
1167.19
1167.92
1168.48
1165.28
1166.37
1167.27
1168
1168.56
1165.21
1166.27
1167.17
1167.9
1168.47
1165.27
1166.36
1167.26
1167.99
1168.55
1165.2
1166.26
1167.17
1167.9
1168.46
1165.27
1166.36
1167.27
1168
1168.56
1165.25
1166.31
1167.21
1167.94
1168.5
1165.33
1166.41
1167.3
1168.03
1168.59
1165.25
1166.32
1167.21
1167.94
1168.5
1165.33
1166.41
1167.3
1168.03
1168.59
1165.25
1166.32
1167.22
1167.95
1168.51
1165.33
1166.41
1167.31
1168.04
1168.6
1165.27
1166.36
1167.26
1167.99
1168.55
1165.34
1166.43
1167.33
1168.05
1168.61
1165.32
1166.41
1167.31
1168.04
1168.6
1169.87
1170.05
1169.79
1169.97
1169.65
1169.85
1169.47
1169.7
1169.3
1169.56
1169.02
1169.33
1169.16
1169.46
1168.88
1169.17
1168.73
1169
1171.77
1173.84
1175.58
1176.94
1177.87
1171.74
1173.82
1175.59
1176.95
1177.9
1171.73
1173.82
1175.57
1176.93
1177.86
1171.7
1173.81
1175.58
1176.95
1177.89
1171.66
1173.78
1175.55
1176.91
1177.85
1171.64
1173.77
1175.55
1176.93
1177.88
1171.57
1173.73
1175.51
1176.89
1177.82
1171.55
1173.72
1175.52
1176.91
1177.85
1171.46
1173.66
1175.46
1176.85
1177.79
1171.46
1173.66
1175.48
1176.87
1177.83
1171.22
1173.48
1175.33
1176.74
1177.7
1171.24
1173.51
1175.36
1176.78
1177.74