/*--------------------------------*- C++ -*----------------------------------*\
  =========                 |
  \\      /  F ield         | OpenFOAM: The Open Source CFD Toolbox
   \\    /   O peration     | Website:  https://openfoam.org
    \\  /    A nd           | Version:  13
     \\/     M anipulation  |
\*---------------------------------------------------------------------------*/
FoamFile
{
    format      ascii;
    class       volScalarField;
    location    "484.831886";
    object      T;
}
// * * * * * * * * * * * * * * * * * * * * * * * * * * * * * * * * * * * * * //

dimensions      [0 0 0 1 0 0 0];

internalField   nonuniform List<scalar> 
5712
(
364.972
365.117
365.356
365.579
365.921
366.15
366.691
366.88
366.519
366.738
365.913
366.133
365.467
365.672
365.127
365.283
366.112
366.408
366.502
366.911
367.052
367.429
367.414
367.896
364.49
363.692
364.644
363.896
364.856
364.09
365.096
364.371
365.691
365.247
366.101
365.539
364.581
365.049
366.984
367.7
367.386
367.922
367.845
368.454
368.319
368.784
366.174
366.915
366.603
367.167
365.522
366.24
362.777
362.225
363.157
362.581
363.178
362.484
363.629
362.988
363.763
362.826
364.467
363.591
365.021
364.152
365.66
364.775
366.349
366.483
366.968
367.039
367.594
367.759
368.096
368.261
365.878
365.735
365.159
365.148
367.496
367.502
367.976
367.889
368.55
368.684
368.978
369.047
366.472
366.224
367.003
366.623
364.806
363.755
364.44
363.271
364.038
362.969
363.832
362.622
365.446
364.419
364.943
363.793
366.018
365.001
365.344
364.208
361.473
360.279
361.276
360.096
361.843
360.724
361.481
360.352
362.464
361.598
361.83
360.898
365.481
366.943
364.151
363.152
362.067
366.716
365.171
363.582
362.518
361.355
367.129
365.752
364.421
363.162
361.928
359.176
358.611
358.602
358.103
359.731
359.083
358.979
358.44
360.703
359.974
359.63
358.989
366.345
365.733
364.66
363.844
363.103
362.264
361.869
361.045
360.255
359.441
366.85
366.351
365.31
364.466
363.868
362.917
362.44
361.422
360.648
359.592
366.072
365.136
366.753
365.921
367.588
367.279
368.203
368.008
365.219
364.136
364.555
363.404
367.332
366.498
367.712
366.917
368.7
368.513
369.061
368.912
365.82
364.719
366.203
365.128
363.478
362.19
361.338
359.799
362.94
361.584
360.97
359.455
363.971
362.725
361.686
360.174
364.435
363.176
362.167
360.735
358.392
358.107
357.634
358.295
358.144
357.708
358.749
358.405
357.902
358.567
358.389
357.918
359.482
359.041
358.479
358.98
358.733
358.203
364.981
364.131
363.235
362.965
362.216
361.425
361.451
360.797
360.099
360.371
359.812
359.145
359.313
358.982
358.361
365.647
364.688
363.67
363.334
362.337
361.337
361.767
360.878
359.98
360.508
359.816
359.018
359.342
358.92
358.203
368.719
369.026
368.997
369.395
367.966
368.344
368.283
368.753
368.824
369.42
368.902
369.455
369.015
369.545
369.151
369.646
369.595
369.327
369.771
369.453
369.674
369.896
369.711
370.079
369.132
369.538
369.781
370.137
370.03
370.365
370.032
370.379
370.025
370.559
369.925
370.419
370.116
370.662
370.096
370.594
370.207
370.799
370.366
370.897
370.487
370.945
370.783
371.15
369.419
369.681
369.785
370.075
368.629
368.855
369.051
369.296
370.293
370.639
369.97
370.291
370.139
370.415
370.49
370.715
369.45
369.674
369.834
370.006
370.607
370.942
370.93
371.209
370.718
371.168
371.004
371.26
370.455
370.947
370.699
371.004
370.976
371.366
371.271
371.481
371.258
371.577
371.505
371.673
369.975
369.684
370.49
370.194
369.991
369.685
370.533
370.226
370.019
369.743
370.603
370.328
369.132
368.191
369.721
370.191
370.688
367.98
368.909
369.451
369.913
370.446
368.381
369.299
369.959
370.401
370.752
369.199
368.539
369.705
369.064
369.244
368.612
369.786
369.17
369.356
368.756
369.943
369.367
367.701
367.185
368.687
368.159
369.246
368.706
369.68
369.131
370.184
369.639
368.202
367.885
369.143
368.822
369.783
369.408
370.192
369.739
370.499
369.947
369.717
369.577
370.119
370.082
368.862
368.748
369.34
369.357
370.616
370.449
370.268
370.014
370.431
370.474
370.727
370.799
369.713
369.806
370.044
370.173
370.898
370.801
371.164
371.093
370.913
370.607
371.032
370.577
370.597
370.214
370.785
370.273
371.173
370.934
371.246
370.845
371.395
371.181
371.441
371.089
367.647
366.764
365.935
367.966
366.968
366.135
367.773
366.878
366.03
368.116
367.11
366.24
367.965
367.085
366.221
368.36
367.304
366.374
366.494
365.643
364.733
367.452
366.568
365.635
367.986
367.063
366.111
368.368
367.444
366.519
368.624
367.511
366.497
367.321
366.391
365.354
368.232
367.281
366.234
368.737
367.73
366.65
368.955
367.896
366.806
368.882
367.712
366.596
370.759
370.35
369.331
367.494
370.591
370.154
369.102
367.251
370.834
370.408
369.385
367.529
370.728
370.262
369.199
367.34
370.933
370.483
369.5
367.697
370.978
370.476
369.427
367.586
370.95
370.394
369.272
367.387
371.063
370.443
369.275
367.376
371.166
370.631
369.604
367.776
371.132
370.561
369.617
367.97
371
370.519
369.59
367.894
370.949
370.433
369.556
368.005
371.301
370.714
369.605
367.709
371.292
370.673
369.673
367.985
371.439
370.8
369.652
367.764
371.433
370.77
369.74
368.058
370.726
370.36
369.432
367.701
370.485
370.173
369.379
367.864
370.748
370.37
369.453
367.733
370.496
370.17
369.38
367.879
370.779
370.378
369.489
367.818
370.548
370.189
369.396
367.913
370.789
370.357
369.511
367.935
370.597
370.202
369.418
367.975
370.767
370.301
369.492
368.047
370.115
369.851
369.134
368.046
369.702
369.468
368.735
367.712
370.162
369.877
369.154
368.067
369.751
369.492
368.749
367.722
370.247
369.921
369.18
368.086
369.836
369.532
368.771
367.741
370.371
369.989
369.231
368.13
369.951
369.592
368.806
367.767
370.529
370.078
369.292
368.179
370.086
369.66
368.844
367.793
370.832
370.251
369.377
368.219
370.431
369.86
368.97
367.879
370.683
370.163
369.332
368.195
370.259
369.759
368.907
367.837
370.967
370.332
369.418
368.24
370.59
369.955
369.029
367.925
371.097
370.416
369.476
368.286
370.737
370.048
369.09
367.974
364.732
362.52
360.647
359.134
357.977
364.593
362.407
360.541
359.03
357.875
364.749
362.529
360.653
359.138
357.98
364.618
362.424
360.554
359.041
357.885
364.781
362.543
360.662
359.145
357.987
364.721
362.51
360.633
359.116
357.958
364.666
362.453
360.575
359.057
357.899
364.701
362.479
360.593
359.072
357.912
364.802
362.555
360.67
359.15
357.991
364.688
362.393
360.503
358.985
357.829
364.776
362.515
360.63
359.112
357.954
364.651
362.355
360.467
358.951
357.796
364.806
362.556
360.667
359.146
357.986
364.677
362.376
360.483
358.964
357.807
364.842
362.58
360.685
359.16
357.998
364.686
362.375
360.477
358.955
357.797
364.716
362.468
360.591
359.078
357.922
364.55
362.272
360.397
358.888
357.736
364.72
362.465
360.586
359.072
357.916
364.554
362.272
360.395
358.885
357.733
364.718
362.449
360.566
359.051
357.895
364.553
362.263
360.384
358.873
357.721
364.669
362.378
360.493
358.978
357.823
364.526
362.23
360.348
358.837
357.685
364.57
362.273
360.389
358.876
357.722
356.172
355.836
356.331
355.987
356.622
356.24
356.995
356.545
357.374
356.848
357.986
357.383
357.677
357.084
358.286
357.707
358.594
358.069
352.606
348.745
345.531
343.055
341.38
352.659
348.772
345.524
343.033
341.33
352.679
348.783
345.555
343.072
341.394
352.725
348.801
345.547
343.04
341.341
352.824
348.864
345.607
343.11
341.426
352.866
348.879
345.597
343.076
341.371
353.022
348.98
345.684
343.166
341.473
353.046
348.985
345.667
343.127
341.414
353.255
349.128
345.784
343.241
341.536
353.243
349.11
345.752
343.191
341.468
353.756
349.489
346.05
343.448
341.716
353.702
349.437
345.991
343.38
341.636
353.505
349.304
345.911
343.338
341.619
353.46
349.26
345.858
343.273
341.54
354.006
349.679
346.195
343.564
341.819
353.97
349.641
346.148
343.506
341.749
354.258
349.874
346.346
343.685
341.925
354.258
349.857
346.319
343.644
341.866
369.666
369.135
368.628
369.236
368.337
368.428
368.465
368.59
368.298
368.468
367.582
367.777
367.186
367.406
367.721
367.907
367.924
368.054
367.953
368.054
369.163
369.253
367.353
366.634
366.436
366.353
367.005
367.572
366.781
367.635
366.077
365.054
367.381
367.136
366.332
367.141
366.809
366.715
368.209
368.183
367.69
367.822
368.056
368.201
367.972
367.715
366.823
366.97
367.343
367.493
368.875
369.022
368.673
368.781
368.495
368.483
367.919
367.292
367.947
370.165
370.667
370.869
370.819
370.511
370.007
370.43
370.604
370.509
370.115
367.869
368.106
368.124
367.911
367.457
367.129
367.346
367.346
367.12
366.662
366.937
367.162
367.171
366.953
366.5
366.846
367.062
367.061
366.836
366.38
367.514
367.745
367.758
367.542
367.088
368.661
369.311
369.644
369.694
369.471
367.937
368.637
368.99
369.043
368.786
368.419
368.914
369.166
369.13
368.77
367.145
367.817
368.141
368.162
367.85
366.091
366.775
367.102
367.125
366.814
368.008
368.366
368.5
368.374
367.966
367.859
368.307
368.519
368.452
368.074
367.03
367.459
367.657
367.58
367.201
367.726
368.043
368.139
367.987
367.565
367.427
367.778
367.908
367.781
367.373
367.288
367.593
367.681
367.523
367.101
369.211
369.764
370.035
370.041
369.775
368.881
369.298
369.485
369.4
369.013
368.287
368.615
368.72
368.574
368.153
368.395
368.695
368.774
368.607
368.174
368.673
369.017
369.136
369
368.583
368.786
369.096
369.184
369.022
368.592
368.518
368.787
368.836
368.644
368.198
368.258
368.524
368.57
368.378
367.933
367.356
367.617
367.661
367.47
367.03
367.49
367.734
367.761
367.556
367.108
367.904
368.193
368.263
368.091
367.657
368.038
368.309
368.36
368.173
367.731
369.847
370.364
370.586
370.552
370.263
369.731
370.133
370.294
370.19
369.789
369.487
369.949
370.165
370.116
369.785
369.417
369.77
369.894
369.76
369.343
369.097
369.423
369.524
369.372
368.946
369.168
369.569
369.743
369.649
369.256
368.47
368.745
368.799
368.612
368.169
367.815
368.062
368.09
367.885
367.435
368.512
368.804
368.874
368.7
368.263
369.464
369.14
369.439
369.079
370.181
369.804
370.196
369.862
369.41
369.369
369.064
369.136
370.168
370.146
369.822
369.923
368.703
367.953
368.41
367.69
368.699
368.021
368.355
367.691
368.343
368.648
368.509
368.713
368.123
367.816
368.642
368.281
368.806
368.411
369.374
368.994
369.597
369.228
367.937
367.551
368.165
367.724
367.394
366.933
367.261
366.653
367.031
366.452
367.313
366.593
367.017
366.378
367.441
366.471
367.234
366.369
366.844
365.96
366.316
365.418
369.132
368.933
368.967
368.744
370.071
370
369.898
369.834
368.071
367.523
368.221
367.721
368.706
368.513
368.371
368.227
369.644
369.621
369.334
369.361
367.804
367.284
367.441
366.975
367.134
366.065
366.257
365.063
367.241
366.093
366.428
365.171
366.875
365.852
366.024
364.864
366.491
365.483
365.704
364.566
367.232
366.904
366.56
366.039
367.29
367.021
366.466
365.965
367.394
367.251
366.295
365.882
369.175
370.144
368.224
367.2
365.891
370.177
369.256
368.309
367.232
365.678
370.088
369.045
367.843
366.531
365.174
366.354
366.09
364.639
364.124
366.613
366.348
364.738
364.223
366.997
366.777
364.858
364.339
370.153
370.001
369.172
368.994
368.146
367.968
366.907
366.682
364.692
364.14
370.078
369.915
368.932
368.574
367.628
367.181
366.12
365.592
364.096
363.433
368.648
368.037
368.474
367.848
369.953
369.867
369.8
369.745
367.007
366.128
367.215
366.381
368.321
367.604
368.037
367.271
369.62
369.523
369.364
369.239
366.851
365.866
366.541
365.495
365.256
364.137
363.042
361.644
365.563
364.475
363.455
362.144
365.016
363.857
362.687
361.247
364.789
363.551
362.486
361.071
365.968
365.725
364.414
364.356
366.22
365.951
364.476
364.437
366.591
366.208
364.536
364.473
369.687
369.137
368.659
368.142
367.673
367.225
366.438
366.014
364.41
364.365
369.594
368.999
368.076
367.53
366.74
366.322
365.391
365.176
363.992
364.04
371.356
371.374
371.018
371.157
370.831
370.847
370.478
370.621
371.723
371.975
371.402
371.664
371.713
371.948
371.364
371.619
371.419
371.715
371.467
371.687
371.893
371.61
370.844
370.472
370.312
369.95
371.01
370.59
371.144
370.766
371.212
370.824
372.116
372.186
371.813
371.899
372.116
372.209
371.796
371.917
372.101
372.239
371.861
372.034
371.502
371.712
371.154
371.429
371.46
371.469
371.302
371.354
370.86
370.861
370.693
370.72
371.704
371.776
371.849
371.869
371.071
371.186
370.797
370.974
370.451
370.527
370.161
370.293
371.484
371.629
371.222
371.44
371.982
372.145
372.005
372.075
372.113
372.233
372.082
372.129
371.773
371.985
371.878
371.977
371.526
371.788
371.71
371.84
372.25
372.203
372.299
372.218
372.228
372.175
372.295
372.206
372.175
372.131
372.275
372.195
371.518
370.93
371.899
372.142
372.226
370.925
371.49
371.864
372.104
372.171
370.935
371.517
371.901
372.102
372.131
371.993
371.625
371.969
371.575
371.997
371.653
371.987
371.61
371.996
371.69
372.013
371.666
370.918
370.769
371.482
371.3
371.82
371.594
372.019
371.756
372.029
371.713
370.963
370.889
371.534
371.436
371.882
371.719
372.04
371.798
372.009
371.692
371.538
371.534
371.401
371.456
370.941
370.989
370.78
370.899
371.761
371.694
371.874
371.761
371.194
371.292
370.981
371.068
370.557
370.718
370.323
370.47
371.584
371.546
371.393
371.338
371.92
371.722
371.867
371.548
372.01
371.773
371.952
371.615
371.783
371.6
371.75
371.424
371.606
371.408
371.607
371.276
371.174
370.75
371.002
370.505
371.233
370.778
371.045
370.518
371.288
370.783
371.11
370.499
370.456
369.899
370.956
370.387
371.232
370.66
371.358
370.768
371.153
370.432
370.623
369.983
371.127
370.459
371.34
370.642
371.333
370.607
371.071
370.257
371.889
371.112
369.85
367.843
371.626
370.854
369.582
367.576
371.905
371.132
369.874
367.852
371.653
370.889
369.627
367.628
371.917
371.149
369.952
367.993
371.757
371.005
369.793
367.832
371.473
370.749
369.518
367.554
371.253
370.572
369.365
367.438
371.84
371.091
369.925
368
371.707
370.954
369.899
368.178
371.884
371.118
370.004
368.173
371.737
370.969
369.929
368.268
371.731
371.008
369.813
367.859
371.645
370.915
369.85
368.123
371.588
370.902
369.724
367.816
371.552
370.852
369.8
368.105
371.977
371.198
370.001
368.086
371.86
371.083
369.998
368.293
371.96
371.183
370.004
368.1
371.833
371.057
369.981
368.292
371.918
371.143
370.007
368.159
371.799
371.022
369.96
368.296
371.836
371.062
369.991
368.253
371.751
370.974
369.939
368.325
371.723
370.947
369.935
368.35
371.582
370.808
369.782
368.535
371.216
370.443
369.402
368.235
371.582
370.806
369.784
368.542
371.215
370.439
369.398
368.231
371.574
370.796
369.773
368.529
371.206
370.426
369.384
368.223
371.563
370.781
369.769
368.53
371.195
370.409
369.371
368.212
371.54
370.756
369.76
368.532
371.172
370.38
369.346
368.191
371.416
370.647
369.661
368.447
371.083
370.3
369.282
368.129
371.489
370.707
369.714
368.491
371.143
370.35
369.322
368.17
371.322
370.574
369.595
368.386
370.987
370.225
369.22
368.08
371.216
370.498
369.535
368.336
370.868
370.138
369.154
368.025
364.939
362.646
360.726
359.186
358.018
364.79
362.528
360.617
359.081
357.915
364.938
362.644
360.725
359.186
358.018
364.791
362.53
360.62
359.085
357.92
364.948
362.644
360.725
359.187
358.019
364.864
362.598
360.688
359.153
357.987
364.766
362.515
360.613
359.083
357.919
364.739
362.502
360.608
359.081
357.92
364.932
362.634
360.719
359.183
358.016
364.802
362.462
360.546
359.014
357.851
364.928
362.607
360.687
359.15
357.984
364.788
362.436
360.518
358.985
357.822
364.895
362.611
360.701
359.168
358.003
364.755
362.423
360.513
358.984
357.823
364.873
362.599
360.697
359.167
358.004
364.714
362.391
360.487
358.962
357.803
364.932
362.599
360.672
359.132
357.964
364.773
362.405
360.479
358.943
357.778
364.924
362.588
360.662
359.123
357.955
364.767
362.399
360.474
358.938
357.774
364.901
362.559
360.634
359.097
357.93
364.747
362.379
360.456
358.921
357.758
364.832
362.476
360.554
359.019
357.854
364.697
362.332
360.412
358.88
357.718
364.721
362.363
360.445
358.913
357.751
361.051
360.66
360.995
360.596
360.869
360.46
360.667
360.267
360.342
359.997
359.512
359.065
359.886
359.497
359.187
358.694
358.89
358.39
356.127
351.225
347.351
344.475
342.601
356.235
351.281
347.357
344.461
342.555
356.077
351.189
347.326
344.456
342.585
356.17
351.231
347.33
344.43
342.534
355.975
351.119
347.276
344.419
342.554
356.07
351.164
347.283
344.395
342.505
355.815
351.011
347.199
344.36
342.503
355.923
351.066
347.214
344.342
342.459
355.588
350.859
347.09
344.275
342.43
355.734
350.941
347.125
344.273
342.4
355.04
350.481
346.813
344.058
342.247
355.137
350.54
346.836
344.052
342.218
355.319
350.68
346.961
344.174
342.344
355.461
350.765
346.999
344.176
342.32
354.774
350.279
346.66
343.937
342.144
354.826
350.308
346.664
343.919
342.107
354.513
350.074
346.501
343.81
342.034
354.538
350.076
346.49
343.781
341.986
370.141
369.638
370.038
370.565
371.348
371.021
371.352
370.98
370.827
370.443
370.83
370.499
363.997
364.1
364.356
364.762
365.31
365.973
363.963
364.061
364.304
364.685
365.187
365.778
363.746
363.376
363.862
363.508
364.149
363.831
364.608
364.359
365.224
365.037
365.943
365.739
366.688
367.371
367.965
368.464
368.843
369.117
366.412
367.031
367.593
368.069
368.441
368.699
364.45
364.628
364.597
364.354
363.9
364.554
364.734
364.703
364.461
364.007
364.813
364.995
364.967
364.725
364.27
365.224
365.411
365.385
365.145
364.689
365.78
365.974
365.953
365.715
365.258
366.454
366.657
366.645
366.412
365.953
364.416
364.595
364.564
364.322
363.868
364.515
364.696
364.666
364.424
363.971
364.762
364.945
364.917
364.676
364.222
365.148
365.336
365.311
365.072
364.617
365.657
365.852
365.832
365.596
365.14
366.259
366.463
366.452
366.22
365.763
364.197
364.375
364.343
364.101
363.648
363.824
364.001
363.969
363.728
363.278
364.314
364.493
364.462
364.221
363.768
363.958
364.136
364.105
363.864
363.414
364.604
364.786
364.756
364.515
364.062
364.285
364.465
364.436
364.196
363.745
365.069
365.255
365.23
364.99
364.534
364.819
365.005
364.979
364.74
364.287
365.694
365.887
365.867
365.629
365.172
365.506
365.7
365.681
365.445
364.989
366.424
366.627
366.615
366.382
365.924
366.22
366.425
366.415
366.184
365.728
367.184
367.402
367.402
367.176
366.719
367.887
368.125
368.143
367.93
367.475
368.508
368.772
368.816
368.62
368.172
369.042
369.341
369.416
369.244
368.806
369.461
369.795
369.899
369.748
369.32
369.762
370.115
370.233
370.092
369.669
366.907
367.123
367.123
366.899
366.443
367.543
367.777
367.792
367.578
367.124
368.125
368.38
368.415
368.214
367.765
368.625
368.903
368.959
368.773
368.33
369.019
369.317
369.391
369.218
368.78
369.29
369.599
369.682
369.515
369.078
364.049
364.254
364.613
365.124
365.778
366.55
364.014
364.214
364.559
365.041
365.641
366.324
363.8
363.432
364.023
363.676
364.417
364.113
364.987
364.758
365.715
365.552
366.558
366.398
367.366
368.116
368.721
369.134
369.312
369.286
367.03
367.687
368.229
368.612
368.809
368.83
364.501
364.68
364.648
364.405
363.951
364.709
364.888
364.857
364.613
364.158
365.071
365.253
365.222
364.979
364.521
365.587
365.772
365.743
365.5
365.04
366.249
366.439
366.414
366.171
365.708
367.03
367.229
367.209
366.968
366.503
364.467
364.646
364.615
364.372
363.918
364.669
364.849
364.818
364.575
364.12
365.017
365.2
365.17
364.927
364.47
365.504
365.69
365.663
365.42
364.961
366.112
366.303
366.279
366.038
365.576
366.804
367.003
366.985
366.746
366.283
364.25
364.428
364.396
364.153
363.701
363.88
364.057
364.024
363.783
363.333
364.475
364.654
364.622
364.379
363.925
364.126
364.304
364.272
364.03
363.578
364.873
365.054
365.023
364.78
364.323
364.567
364.747
364.716
364.474
364.019
365.448
365.633
365.604
365.361
364.901
365.218
365.402
365.374
365.131
364.674
366.184
366.375
366.349
366.106
365.644
366.021
366.211
366.186
365.944
365.483
367.038
367.236
367.216
366.974
366.509
366.877
367.075
367.056
366.815
366.351
367.859
368.069
368.059
367.823
367.356
368.627
368.853
368.857
368.629
368.163
369.255
369.504
369.529
369.316
368.855
369.7
369.982
370.037
369.845
369.394
369.92
370.238
370.325
370.159
369.72
369.927
370.274
370.385
370.238
369.811
367.523
367.733
367.724
367.49
367.026
368.194
368.419
368.423
368.197
367.734
368.756
369
369.022
368.807
368.348
369.161
369.428
369.471
369.272
368.819
369.382
369.672
369.735
369.552
369.107
369.418
369.725
369.804
369.632
369.193
369.456
369.483
368.208
367.369
367.346
367.137
367.899
369.968
369.74
369.795
369.174
369.133
369.293
368.705
368.621
368.288
369.994
369.851
369.213
369.134
369.516
369.393
368.912
368.804
368.078
368.054
368.709
368.694
369.731
369.653
369.956
369.663
369.559
369.855
368.977
368.301
369.139
370.442
370.92
371.104
371.037
370.712
370.227
370.638
370.8
370.695
370.294
368.717
368.94
368.94
368.71
368.242
367.861
368.069
368.057
367.819
367.351
367.84
368.051
368.042
367.807
367.341
367.626
367.831
367.818
367.579
367.113
368.4
368.616
368.611
368.377
367.909
370.842
371.271
371.429
371.337
371.008
370.587
370.996
371.134
371.022
370.666
370.449
370.801
370.916
370.77
370.341
369.935
370.299
370.405
370.265
369.858
369.694
369.969
370.017
369.821
369.366
369.896
370.207
370.287
370.114
369.672
369.244
369.498
369.528
369.319
368.86
369.169
369.433
369.473
369.271
368.817
368.817
369.063
369.087
368.874
368.415
370.855
371.278
371.431
371.334
370.995
370.477
370.807
370.904
370.744
370.307
369.766
370.033
370.074
369.871
369.414
369.677
369.934
369.965
369.756
369.294
370.088
370.373
370.429
370.238
369.785
369.95
370.222
370.266
370.066
369.609
369.445
369.692
369.714
369.499
369.036
369.329
369.569
369.584
369.363
368.898
368.592
368.821
368.829
368.605
368.141
368.561
368.784
368.785
368.555
368.088
369.238
369.483
369.505
369.289
368.826
369.217
369.456
369.47
369.249
368.784
370.658
371.106
371.275
371.194
370.858
370.34
370.713
370.844
370.712
370.293
370.705
371.09
371.231
371.117
370.74
370.275
370.595
370.683
370.517
370.078
370.136
370.425
370.486
370.299
369.848
370.487
370.823
370.927
370.773
370.339
369.51
369.758
369.78
369.565
369.101
368.812
369.038
369.041
368.812
368.345
369.68
369.936
369.966
369.756
369.294
368.892
369.34
369.53
369.475
369.193
368.629
369.575
369.538
370.304
370.322
369.499
369.43
370.276
370.232
368.782
367.952
368.774
368.03
368.695
368.733
368.166
369.601
369.56
370.338
370.361
369.516
369.444
370.302
370.243
368.745
367.874
368.739
367.971
368.664
368.72
368.114
369.596
369.55
370.348
370.377
369.5
369.424
370.302
370.238
368.711
367.656
368.703
367.782
368.624
368.683
367.953
369.44
369.394
370.206
370.238
369.337
369.245
370.156
370.08
368.499
367.382
368.498
367.515
368.427
368.493
367.718
369.154
369.109
369.914
369.947
369.051
368.942
369.864
369.787
368.208
367.161
368.211
367.265
368.15
368.194
367.463
368.636
368.594
369.379
369.411
368.546
368.452
369.33
369.259
367.747
366.785
367.758
366.883
367.706
367.754
367.081
371.476
371.477
370.956
370.961
371.46
371.443
370.938
370.91
371.844
372.116
371.824
372.073
371.813
371.761
371.985
371.517
371.511
370.993
371.004
371.483
371.452
370.965
370.931
371.901
372.121
371.869
372.066
371.836
371.766
371.972
371.536
371.52
371.007
371.026
371.478
371.434
370.967
370.917
371.876
372.008
371.836
371.958
371.782
371.708
371.87
371.393
371.37
370.866
370.89
371.318
371.257
370.819
370.765
371.695
371.743
371.647
371.696
371.574
371.485
371.613
371.085
371.059
370.567
370.593
370.995
370.914
370.518
370.458
371.352
371.353
371.301
371.316
371.219
371.119
371.247
370.522
370.495
370.017
370.043
370.43
370.359
369.967
369.909
370.783
370.842
370.734
370.801
370.665
370.58
370.73
364.946
365.083
365.35
365.574
365.917
366.146
366.688
366.877
366.516
366.735
365.909
366.129
365.461
365.667
365.095
365.243
366.109
366.406
366.499
366.91
367.049
367.427
367.412
367.894
364.47
363.678
364.617
363.875
364.851
364.087
365.092
364.368
365.688
365.244
366.099
365.537
364.578
365.047
366.982
367.699
367.385
367.921
367.843
368.453
368.318
368.783
366.172
366.914
366.601
367.166
365.52
366.239
362.764
362.212
363.138
362.562
363.176
362.482
363.628
362.987
363.761
362.824
364.465
363.59
365.019
364.151
365.659
364.774
366.347
366.482
366.967
367.038
367.593
367.758
368.095
368.26
365.877
365.734
365.157
365.147
367.495
367.502
367.976
367.889
368.55
368.684
368.977
369.046
366.471
366.223
367.002
366.622
364.805
363.754
364.439
363.27
364.036
362.967
363.831
362.621
365.445
364.418
364.943
363.792
366.017
365.001
365.343
364.208
361.458
360.262
361.265
360.085
361.842
360.724
361.479
360.351
362.463
361.597
361.829
360.897
365.48
366.942
364.15
363.151
362.066
366.715
365.17
363.581
362.517
361.354
367.128
365.751
364.42
363.161
361.927
359.159
358.594
358.592
358.094
359.731
359.084
358.978
358.44
360.703
359.974
359.629
358.988
366.344
365.732
364.659
363.843
363.102
362.264
361.869
361.044
360.254
359.441
366.85
366.35
365.309
364.466
363.868
362.917
362.439
361.422
360.648
359.591
366.071
365.135
366.752
365.92
367.587
367.278
368.202
368.007
365.218
364.135
364.555
363.403
367.331
366.498
367.711
366.916
368.699
368.513
369.06
368.912
365.82
364.719
366.202
365.127
363.477
362.189
361.337
359.798
362.939
361.583
360.969
359.454
363.97
362.724
361.685
360.174
364.434
363.176
362.166
360.734
358.377
358.094
357.622
358.286
358.135
357.7
358.749
358.405
357.902
358.566
358.388
357.917
359.482
359.041
358.478
358.98
358.732
358.203
364.981
364.131
363.235
362.965
362.216
361.425
361.45
360.797
360.098
360.371
359.811
359.145
359.313
358.982
358.361
365.646
364.687
363.669
363.333
362.337
361.337
361.767
360.877
359.98
360.507
359.815
359.018
359.342
358.92
358.203
368.718
369.025
368.996
369.394
367.965
368.342
368.282
368.752
368.814
369.41
368.887
369.44
369.014
369.544
369.151
369.646
369.595
369.327
369.77
369.453
369.674
369.896
369.71
370.078
369.132
369.537
369.78
370.136
370.03
370.365
370.031
370.378
370.016
370.553
369.912
370.409
370.115
370.661
370.096
370.594
370.207
370.798
370.366
370.897
370.487
370.945
370.783
371.15
369.418
369.68
369.784
370.075
368.628
368.855
369.051
369.295
370.293
370.639
369.969
370.291
370.138
370.415
370.489
370.715
369.449
369.673
369.834
370.005
370.607
370.941
370.93
371.208
370.717
371.168
371.004
371.26
370.454
370.946
370.699
371.004
370.975
371.365
371.27
371.48
371.258
371.577
371.505
371.672
369.969
369.681
370.487
370.192
369.991
369.685
370.533
370.226
370.019
369.743
370.603
370.327
369.131
368.19
369.72
370.19
370.687
367.98
368.909
369.451
369.913
370.445
368.381
369.299
369.959
370.401
370.751
369.196
368.535
369.704
369.062
369.244
368.612
369.785
369.17
369.356
368.756
369.942
369.367
367.7
367.184
368.686
368.159
369.246
368.705
369.68
369.131
370.184
369.639
368.201
367.884
369.142
368.822
369.783
369.407
370.192
369.738
370.498
369.947
369.716
369.576
370.119
370.081
368.861
368.747
369.339
369.356
370.615
370.448
370.268
370.014
370.43
370.473
370.727
370.799
369.712
369.806
370.043
370.172
370.897
370.8
371.164
371.093
370.912
370.606
371.032
370.576
370.596
370.213
370.785
370.272
371.173
370.933
371.246
370.845
371.395
371.181
371.44
371.089
367.642
366.759
365.93
367.965
366.966
366.133
367.773
366.878
366.03
368.116
367.11
366.24
367.965
367.085
366.221
368.359
367.303
366.374
366.493
365.643
364.732
367.451
366.568
365.635
367.986
367.063
366.111
368.368
367.444
366.519
368.624
367.511
366.496
367.321
366.391
365.353
368.231
367.281
366.234
368.737
367.73
366.65
368.955
367.896
366.805
368.881
367.711
366.595
370.755
370.347
369.327
367.489
370.583
370.147
369.095
367.244
370.833
370.408
369.385
367.529
370.728
370.262
369.199
367.341
370.933
370.483
369.5
367.697
370.978
370.476
369.428
367.586
370.95
370.394
369.272
367.387
371.063
370.443
369.275
367.376
371.166
370.631
369.604
367.776
371.132
370.561
369.617
367.97
371
370.519
369.59
367.894
370.949
370.433
369.556
368.005
371.301
370.714
369.605
367.71
371.292
370.673
369.673
367.985
371.439
370.8
369.652
367.764
371.433
370.77
369.74
368.058
370.725
370.359
369.43
367.698
370.485
370.173
369.379
367.863
370.747
370.37
369.453
367.733
370.496
370.17
369.379
367.879
370.779
370.378
369.489
367.818
370.548
370.189
369.396
367.913
370.788
370.357
369.511
367.936
370.597
370.202
369.417
367.975
370.766
370.301
369.492
368.047
370.117
369.853
369.136
368.046
369.703
369.47
368.738
367.714
370.162
369.876
369.153
368.067
369.75
369.491
368.749
367.721
370.247
369.921
369.18
368.086
369.835
369.532
368.771
367.74
370.37
369.989
369.231
368.13
369.951
369.591
368.806
367.767
370.529
370.078
369.292
368.179
370.086
369.66
368.844
367.793
370.832
370.251
369.377
368.219
370.431
369.86
368.97
367.879
370.683
370.163
369.332
368.196
370.259
369.759
368.907
367.837
370.967
370.332
369.418
368.24
370.59
369.955
369.029
367.925
371.097
370.416
369.475
368.286
370.736
370.048
369.09
367.974
364.731
362.52
360.647
359.133
357.977
364.588
362.404
360.538
359.028
357.873
364.749
362.529
360.653
359.138
357.981
364.619
362.424
360.555
359.042
357.886
364.781
362.543
360.662
359.145
357.987
364.721
362.51
360.634
359.117
357.959
364.666
362.454
360.575
359.057
357.899
364.701
362.479
360.594
359.072
357.912
364.803
362.555
360.67
359.15
357.991
364.688
362.393
360.503
358.986
357.829
364.776
362.515
360.63
359.112
357.954
364.651
362.355
360.467
358.952
357.796
364.806
362.556
360.668
359.146
357.986
364.677
362.376
360.484
358.965
357.808
364.842
362.58
360.685
359.16
357.998
364.687
362.375
360.477
358.956
357.798
364.717
362.47
360.593
359.08
357.924
364.551
362.275
360.399
358.89
357.738
364.72
362.465
360.586
359.072
357.916
364.554
362.272
360.395
358.885
357.733
364.718
362.449
360.566
359.051
357.895
364.553
362.263
360.384
358.873
357.721
364.669
362.379
360.493
358.978
357.823
364.526
362.23
360.349
358.838
357.685
364.57
362.273
360.389
358.876
357.722
356.164
355.829
356.331
355.987
356.622
356.239
356.995
356.544
357.374
356.847
357.985
357.382
357.677
357.084
358.285
357.707
358.593
358.069
352.602
348.742
345.529
343.054
341.378
352.657
348.771
345.523
343.033
341.33
352.679
348.782
345.555
343.072
341.394
352.724
348.8
345.547
343.04
341.341
352.824
348.863
345.607
343.11
341.426
352.865
348.878
345.597
343.076
341.371
353.022
348.979
345.683
343.166
341.473
353.046
348.984
345.666
343.127
341.414
353.254
349.127
345.784
343.241
341.536
353.243
349.109
345.752
343.191
341.468
353.756
349.489
346.049
343.447
341.715
353.701
349.437
345.991
343.379
341.635