/*--------------------------------*- C++ -*----------------------------------*\
  =========                 |
  \\      /  F ield         | OpenFOAM: The Open Source CFD Toolbox
   \\    /   O peration     | Website:  https://openfoam.org
    \\  /    A nd           | Version:  13
     \\/     M anipulation  |
\*---------------------------------------------------------------------------*/
FoamFile
{
    format      ascii;
    class       volScalarField;
    location    "374.831886";
    object      T;
}
// * * * * * * * * * * * * * * * * * * * * * * * * * * * * * * * * * * * * * //

dimensions      [0 0 0 1 0 0 0];

internalField   nonuniform List<scalar> 
5712
(
1186.51
1186.59
1186.73
1186.85
1186.99
1187.12
1187.26
1187.38
1187.11
1187.25
1186.88
1187.02
1186.69
1186.81
1186.52
1186.61
1187.16
1187.36
1187.38
1187.65
1187.5
1187.75
1187.72
1188.04
1186.35
1186.06
1186.44
1186.15
1186.58
1186.29
1186.71
1186.42
1187.08
1186.83
1187.32
1187.01
1186.57
1186.8
1187.63
1188.02
1187.91
1188.2
1187.96
1188.31
1188.28
1188.54
1187.32
1187.7
1187.58
1187.87
1187.03
1187.4
1185.71
1185.43
1185.83
1185.52
1185.94
1185.59
1186.1
1185.76
1186.27
1185.83
1186.59
1186.14
1186.85
1186.4
1187.17
1186.7
1187.4
1187.51
1187.75
1187.82
1187.88
1187.98
1188.18
1188.28
1187.31
1187.31
1186.93
1187
1188.03
1188.07
1188.29
1188.27
1188.44
1188.51
1188.67
1188.7
1187.61
1187.56
1187.89
1187.76
1186.85
1186.33
1186.77
1186.22
1186.48
1185.97
1186.46
1185.9
1187.16
1186.64
1187.02
1186.47
1187.45
1186.92
1187.22
1186.67
1185.13
1184.62
1185.04
1184.56
1185.34
1184.85
1185.17
1184.71
1185.68
1185.27
1185.39
1185
1186.94
1187.48
1186.43
1186.06
1185.57
1187.33
1186.75
1186.12
1185.73
1185.25
1187.6
1187.1
1186.61
1186.12
1185.57
1184.15
1183.82
1184
1183.73
1184.4
1184.02
1184.18
1183.89
1184.84
1184.41
1184.48
1184.14
1187.1
1186.69
1186.47
1185.96
1185.87
1185.37
1185.42
1184.95
1184.8
1184.37
1187.43
1187.1
1186.86
1186.38
1186.33
1185.8
1185.78
1185.23
1185.04
1184.5
1187.3
1186.79
1187.66
1187.2
1187.87
1187.61
1188.21
1188
1187.06
1186.5
1186.72
1186.12
1187.94
1187.49
1188.13
1187.69
1188.46
1188.26
1188.64
1188.45
1187.35
1186.79
1187.54
1186.99
1186.35
1185.72
1185.45
1184.74
1186.07
1185.4
1185.25
1184.54
1186.59
1185.98
1185.62
1184.92
1186.81
1186.19
1185.84
1185.18
1183.51
1183.13
1182.68
1183.55
1183.22
1182.77
1183.67
1183.27
1182.79
1183.69
1183.34
1182.87
1184
1183.56
1183.05
1183.88
1183.48
1182.97
1186.17
1185.58
1184.95
1185.37
1184.8
1184.2
1184.81
1184.27
1183.69
1184.46
1183.95
1183.37
1184.04
1183.57
1182.98
1186.61
1185.94
1185.22
1185.67
1184.95
1184.2
1185.06
1184.37
1183.65
1184.57
1183.94
1183.25
1184.03
1183.47
1182.8
1188.09
1188.3
1188.27
1188.54
1187.83
1188.08
1188.03
1188.34
1187.94
1188.18
1187.99
1188.21
1188.09
1188.29
1188.18
1188.36
1188.48
1188.31
1188.64
1188.43
1188.43
1188.57
1188.74
1188.96
1188.57
1188.8
1188.61
1188.85
1188.8
1189
1188.66
1188.89
1188.43
1188.64
1188.38
1188.55
1188.52
1188.72
1188.52
1188.67
1188.64
1188.83
1188.75
1188.89
1188.84
1188.92
1189.02
1189.04
1188.52
1188.67
1188.76
1188.92
1188.25
1188.38
1188.52
1188.65
1188.9
1189.09
1188.68
1188.87
1188.97
1189.12
1189.18
1189.28
1188.75
1188.87
1188.97
1189.05
1189.09
1189.26
1189.28
1189.41
1189
1189.08
1189.16
1189.14
1188.82
1188.94
1188.97
1188.98
1189.16
1189.19
1189.31
1189.26
1189.33
1189.31
1189.44
1189.36
1188.32
1188.1
1188.58
1188.38
1188.37
1188.14
1188.62
1188.42
1188.46
1188.26
1188.69
1188.51
1188.28
1187.94
1188.47
1188.63
1188.77
1187.81
1188.14
1188.28
1188.44
1188.62
1188.07
1188.41
1188.64
1188.77
1188.82
1187.78
1187.36
1188.07
1187.67
1187.85
1187.45
1188.14
1187.76
1188
1187.61
1188.28
1187.93
1187.61
1187.25
1187.97
1187.61
1188.14
1187.79
1188.29
1187.93
1188.47
1188.14
1187.94
1187.7
1188.29
1188.05
1188.51
1188.26
1188.64
1188.34
1188.68
1188.35
1188.65
1188.5
1188.9
1188.79
1188.34
1188.19
1188.63
1188.54
1189.05
1188.89
1188.83
1188.63
1189.08
1189
1189.24
1189.16
1188.84
1188.77
1189.01
1188.94
1189.21
1189.08
1189.35
1189.22
1189.09
1188.87
1189
1188.73
1188.89
1188.63
1188.86
1188.55
1189.23
1189.05
1189.12
1188.87
1189.35
1189.17
1189.23
1189
1186.8
1186.22
1185.66
1186.99
1186.35
1185.79
1186.91
1186.33
1185.76
1187.12
1186.47
1185.89
1187.11
1186.53
1185.95
1187.32
1186.64
1186.02
1186.78
1186.2
1185.57
1187.14
1186.56
1185.92
1187.32
1186.72
1186.08
1187.45
1186.85
1186.23
1187.53
1186.83
1186.15
1187.29
1186.65
1185.94
1187.64
1187
1186.29
1187.82
1187.16
1186.43
1187.85
1187.17
1186.44
1187.73
1186.99
1186.24
1188.61
1188.23
1187.53
1186.37
1188.5
1188.1
1187.38
1186.21
1188.66
1188.26
1187.56
1186.39
1188.58
1188.17
1187.44
1186.27
1188.72
1188.31
1187.63
1186.49
1188.74
1188.3
1187.58
1186.42
1188.72
1188.24
1187.47
1186.29
1188.77
1188.25
1187.46
1186.27
1188.87
1188.4
1187.68
1186.53
1188.85
1188.34
1187.68
1186.63
1188.77
1188.33
1187.68
1186.61
1188.74
1188.27
1187.64
1186.65
1188.94
1188.44
1187.68
1186.49
1188.94
1188.41
1187.7
1186.64
1189.02
1188.48
1187.7
1186.51
1189.01
1188.46
1187.74
1186.67
1188.58
1188.23
1187.59
1186.49
1188.43
1188.11
1187.54
1186.58
1188.6
1188.24
1187.6
1186.51
1188.44
1188.11
1187.54
1186.58
1188.63
1188.24
1187.62
1186.56
1188.48
1188.12
1187.55
1186.6
1188.64
1188.23
1187.62
1186.62
1188.51
1188.13
1187.56
1186.63
1188.62
1188.19
1187.6
1186.68
1188.18
1187.89
1187.37
1186.65
1187.91
1187.64
1187.09
1186.4
1188.22
1187.91
1187.38
1186.66
1187.95
1187.66
1187.1
1186.4
1188.28
1187.94
1187.39
1186.67
1188.01
1187.68
1187.11
1186.41
1188.37
1187.98
1187.42
1186.69
1188.1
1187.72
1187.14
1186.43
1188.47
1188.04
1187.46
1186.72
1188.19
1187.76
1187.16
1186.44
1188.66
1188.14
1187.5
1186.74
1188.4
1187.88
1187.23
1186.48
1188.57
1188.09
1187.48
1186.73
1188.3
1187.82
1187.19
1186.46
1188.73
1188.18
1187.52
1186.74
1188.49
1187.93
1187.25
1186.5
1188.8
1188.22
1187.55
1186.76
1188.56
1187.98
1187.28
1186.52
1184.7
1183.38
1182.24
1181.28
1180.49
1184.61
1183.29
1182.16
1181.2
1180.41
1184.71
1183.38
1182.24
1181.28
1180.49
1184.62
1183.3
1182.17
1181.21
1180.41
1184.73
1183.39
1182.25
1181.29
1180.49
1184.69
1183.36
1182.22
1181.26
1180.47
1184.64
1183.32
1182.18
1181.22
1180.42
1184.66
1183.33
1182.19
1181.22
1180.43
1184.74
1183.39
1182.25
1181.29
1180.49
1184.65
1183.27
1182.12
1181.16
1180.37
1184.72
1183.37
1182.22
1181.26
1180.47
1184.63
1183.24
1182.1
1181.14
1180.34
1184.74
1183.39
1182.24
1181.28
1180.49
1184.64
1183.25
1182.1
1181.14
1180.35
1184.75
1183.4
1182.25
1181.29
1180.5
1184.64
1183.25
1182.09
1181.13
1180.34
1184.69
1183.34
1182.2
1181.24
1180.44
1184.57
1183.19
1182.05
1181.09
1180.3
1184.69
1183.33
1182.19
1181.23
1180.44
1184.57
1183.19
1182.05
1181.09
1180.29
1184.68
1183.32
1182.17
1181.22
1180.42
1184.56
1183.18
1182.04
1181.08
1180.28
1184.64
1183.26
1182.12
1181.16
1180.36
1184.54
1183.16
1182.01
1181.05
1180.25
1184.57
1183.19
1182.04
1181.08
1180.28
1183.08
1182.93
1183.16
1183
1183.3
1183.13
1183.49
1183.28
1183.69
1183.45
1184.02
1183.75
1183.86
1183.59
1184.17
1183.91
1184.3
1184.07
1181.79
1180.37
1179.11
1177.96
1176.93
1181.78
1180.35
1179.07
1177.92
1176.87
1181.82
1180.39
1179.11
1177.97
1176.93
1181.81
1180.36
1179.08
1177.92
1176.87
1181.89
1180.42
1179.13
1177.97
1176.94
1181.88
1180.4
1179.09
1177.92
1176.87
1181.99
1180.47
1179.15
1177.99
1176.95
1181.97
1180.44
1179.12
1177.94
1176.88
1182.1
1180.52
1179.18
1178
1176.95
1182.06
1180.49
1179.14
1177.95
1176.89
1182.33
1180.66
1179.26
1178.04
1176.98
1182.28
1180.62
1179.21
1177.99
1176.92
1182.21
1180.59
1179.22
1178.02
1176.97
1182.17
1180.55
1179.17
1177.96
1176.9
1182.43
1180.73
1179.3
1178.07
1177
1182.4
1180.69
1179.25
1178.01
1176.94
1182.54
1180.8
1179.34
1178.09
1177.02
1182.51
1180.76
1179.3
1178.04
1176.96
1188.71
1188.55
1188.24
1188.43
1187.73
1187.8
1187.86
1187.94
1187.84
1187.95
1187.58
1187.7
1187.35
1187.49
1187.54
1187.66
1187.58
1187.67
1187.54
1187.62
1188.36
1188.24
1186.74
1186.2
1186.1
1186.01
1186.5
1187.55
1187.06
1187.38
1186.54
1185.84
1187.01
1186.98
1186.42
1186.78
1186.62
1186.47
1187.87
1187.63
1187.16
1187.19
1187.43
1187.45
1187.21
1187.05
1186.45
1186.51
1186.86
1186.92
1188.22
1188.09
1188.02
1187.88
1187.66
1187.79
1187.2
1186.73
1187.25
1188.83
1189.01
1189.03
1188.91
1188.66
1188.63
1188.81
1188.83
1188.7
1188.4
1187.07
1187.21
1187.2
1187.03
1186.71
1186.54
1186.67
1186.65
1186.48
1186.16
1186.43
1186.57
1186.55
1186.39
1186.06
1186.35
1186.48
1186.46
1186.29
1185.97
1186.83
1186.97
1186.96
1186.79
1186.47
1188.05
1188.3
1188.39
1188.32
1188.11
1187.6
1187.88
1187.98
1187.92
1187.69
1187.79
1188.01
1188.07
1187.97
1187.69
1187.06
1187.34
1187.43
1187.36
1187.1
1186.35
1186.65
1186.74
1186.67
1186.41
1187.38
1187.56
1187.58
1187.45
1187.14
1187.38
1187.59
1187.64
1187.53
1187.24
1186.81
1187.02
1187.07
1186.95
1186.66
1187.14
1187.3
1187.32
1187.17
1186.86
1186.99
1187.16
1187.19
1187.06
1186.75
1186.83
1186.99
1187
1186.85
1186.54
1188.35
1188.55
1188.61
1188.52
1188.29
1188.01
1188.2
1188.24
1188.12
1187.82
1187.52
1187.69
1187.7
1187.56
1187.25
1187.54
1187.7
1187.71
1187.56
1187.24
1187.79
1187.96
1187.98
1187.84
1187.53
1187.8
1187.96
1187.97
1187.82
1187.51
1187.55
1187.7
1187.7
1187.54
1187.22
1187.39
1187.54
1187.54
1187.38
1187.06
1186.79
1186.94
1186.94
1186.78
1186.46
1186.85
1186.99
1186.98
1186.82
1186.5
1187.21
1187.37
1187.37
1187.22
1186.9
1187.26
1187.41
1187.41
1187.25
1186.94
1188.67
1188.87
1188.9
1188.79
1188.55
1188.47
1188.64
1188.67
1188.53
1188.23
1188.43
1188.62
1188.66
1188.55
1188.28
1188.24
1188.4
1188.42
1188.28
1187.97
1188.02
1188.18
1188.19
1188.04
1187.73
1188.17
1188.35
1188.38
1188.26
1187.96
1187.54
1187.69
1187.69
1187.53
1187.21
1187.06
1187.21
1187.2
1187.04
1186.71
1187.6
1187.76
1187.76
1187.61
1187.29
1189
1188.79
1189
1188.77
1189.27
1189.04
1189.28
1189.07
1188.99
1188.97
1188.79
1188.85
1189.27
1189.26
1189.07
1189.15
1188.69
1188.35
1188.49
1188.17
1188.69
1188.39
1188.47
1188.18
1188.5
1188.68
1188.59
1188.71
1188.45
1188.26
1188.53
1188.33
1188.67
1188.46
1188.81
1188.61
1188.97
1188.77
1188.25
1188.04
1188.4
1188.16
1188.01
1187.76
1188.01
1187.67
1187.84
1187.5
1188.06
1187.66
1187.85
1187.49
1188.15
1187.64
1188.01
1187.54
1187.78
1187.31
1187.51
1187.03
1188.86
1188.75
1188.79
1188.68
1189.21
1189.15
1189.13
1189.08
1188.43
1188.19
1188.5
1188.27
1188.66
1188.57
1188.49
1188.43
1189.01
1188.99
1188.85
1188.86
1188.29
1188.08
1188.11
1187.94
1188.01
1187.47
1187.64
1187.07
1188.07
1187.5
1187.72
1187.12
1187.88
1187.35
1187.54
1186.98
1187.68
1187.16
1187.39
1186.84
1188.05
1187.92
1187.68
1187.48
1188.09
1187.98
1187.65
1187.46
1188.14
1188.08
1187.59
1187.43
1188.86
1189.22
1188.49
1188.06
1187.43
1189.22
1188.89
1188.52
1188.06
1187.34
1189.18
1188.79
1188.31
1187.75
1187.12
1187.67
1187.49
1186.9
1186.61
1187.78
1187.6
1186.94
1186.65
1187.95
1187.78
1186.99
1186.69
1189.18
1189.03
1188.82
1188.67
1188.42
1188.27
1187.9
1187.73
1186.91
1186.6
1189.14
1188.97
1188.71
1188.46
1188.19
1187.9
1187.55
1187.24
1186.66
1186.29
1188.58
1188.21
1188.5
1188.12
1189.07
1188.9
1189
1188.83
1187.91
1187.44
1188.01
1187.55
1188.42
1188.01
1188.29
1187.85
1188.91
1188.72
1188.79
1188.6
1187.84
1187.32
1187.7
1187.15
1187.18
1186.62
1186.22
1185.56
1187.31
1186.76
1186.39
1185.76
1187.08
1186.5
1186.07
1185.4
1186.98
1186.36
1185.99
1185.32
1187.33
1187.12
1186.6
1186.45
1187.44
1187.21
1186.62
1186.47
1187.6
1187.3
1186.63
1186.45
1188.78
1188.38
1188.4
1188.02
1188.03
1187.67
1187.51
1187.16
1186.55
1186.33
1188.68
1188.23
1188.1
1187.67
1187.55
1187.17
1186.97
1186.66
1186.29
1186.07
1189.65
1189.66
1189.46
1189.55
1189.5
1189.5
1189.3
1189.39
1189.72
1189.74
1189.52
1189.55
1189.72
1189.75
1189.51
1189.54
1189.56
1189.73
1189.62
1189.73
1189.75
1189.58
1189.38
1189.18
1189.22
1189.03
1189.33
1189.11
1189.44
1189.23
1189.35
1189.14
1189.71
1189.6
1189.52
1189.42
1189.74
1189.62
1189.53
1189.44
1189.77
1189.66
1189.63
1189.54
1189.43
1189.35
1189.23
1189.2
1189.67
1189.64
1189.6
1189.59
1189.48
1189.46
1189.41
1189.4
1189.69
1189.69
1189.76
1189.73
1189.48
1189.52
1189.34
1189.41
1189.29
1189.31
1189.14
1189.19
1189.58
1189.62
1189.44
1189.53
1189.72
1189.61
1189.69
1189.56
1189.78
1189.65
1189.72
1189.58
1189.61
1189.53
1189.63
1189.52
1189.48
1189.43
1189.55
1189.45
1189.79
1189.75
1189.67
1189.61
1189.8
1189.76
1189.67
1189.61
1189.8
1189.77
1189.67
1189.62
1189.68
1189.49
1189.77
1189.78
1189.64
1189.48
1189.66
1189.75
1189.76
1189.61
1189.48
1189.66
1189.74
1189.72
1189.57
1189.62
1189.39
1189.46
1189.23
1189.64
1189.42
1189.48
1189.25
1189.68
1189.47
1189.5
1189.29
1189.45
1189.31
1189.63
1189.48
1189.7
1189.53
1189.69
1189.5
1189.51
1189.31
1189.45
1189.32
1189.62
1189.49
1189.69
1189.53
1189.66
1189.46
1189.49
1189.28
1189.61
1189.49
1189.55
1189.45
1189.43
1189.33
1189.35
1189.27
1189.62
1189.48
1189.67
1189.51
1189.46
1189.38
1189.36
1189.28
1189.25
1189.19
1189.14
1189.08
1189.55
1189.42
1189.46
1189.33
1189.59
1189.39
1189.42
1189.19
1189.63
1189.41
1189.45
1189.22
1189.53
1189.34
1189.36
1189.14
1189.45
1189.27
1189.3
1189.08
1189.1
1188.83
1188.88
1188.57
1189.16
1188.86
1188.91
1188.58
1189.21
1188.88
1188.95
1188.56
1189.06
1188.66
1189.22
1188.83
1189.28
1188.89
1189.23
1188.84
1188.97
1188.5
1189.07
1188.61
1189.22
1188.76
1189.24
1188.77
1189.14
1188.66
1188.9
1188.37
1189.23
1188.62
1187.77
1186.53
1189.07
1188.46
1187.6
1186.36
1189.25
1188.63
1187.79
1186.53
1189.09
1188.49
1187.64
1186.39
1189.26
1188.65
1187.84
1186.62
1189.17
1188.57
1187.75
1186.53
1189
1188.41
1187.58
1186.36
1188.88
1188.32
1187.5
1186.3
1189.22
1188.63
1187.83
1186.63
1189.14
1188.54
1187.81
1186.72
1189.24
1188.63
1187.87
1186.73
1189.15
1188.53
1187.81
1186.77
1189.17
1188.59
1187.78
1186.55
1189.12
1188.52
1187.79
1186.7
1189.1
1188.53
1187.73
1186.54
1189.07
1188.5
1187.77
1186.69
1189.28
1188.67
1187.86
1186.67
1189.2
1188.58
1187.84
1186.77
1189.27
1188.66
1187.86
1186.67
1189.19
1188.57
1187.83
1186.77
1189.25
1188.63
1187.86
1186.71
1189.17
1188.55
1187.81
1186.77
1189.2
1188.58
1187.85
1186.76
1189.14
1188.52
1187.8
1186.79
1189.13
1188.51
1187.81
1186.81
1189.02
1188.4
1187.68
1186.87
1188.78
1188.15
1187.42
1186.63
1189.02
1188.4
1187.68
1186.87
1188.78
1188.15
1187.41
1186.63
1189.02
1188.39
1187.68
1186.87
1188.78
1188.15
1187.41
1186.63
1189.01
1188.39
1187.68
1186.87
1188.77
1188.14
1187.4
1186.63
1189.01
1188.38
1187.68
1186.88
1188.76
1188.13
1187.39
1186.62
1188.95
1188.33
1187.63
1186.84
1188.73
1188.1
1187.37
1186.59
1188.98
1188.36
1187.66
1186.86
1188.75
1188.12
1187.39
1186.61
1188.9
1188.3
1187.6
1186.81
1188.68
1188.06
1187.34
1186.57
1188.85
1188.26
1187.57
1186.79
1188.63
1188.02
1187.31
1186.55
1184.79
1183.43
1182.27
1181.3
1180.5
1184.69
1183.34
1182.19
1181.22
1180.42
1184.79
1183.43
1182.27
1181.3
1180.5
1184.69
1183.34
1182.19
1181.22
1180.42
1184.8
1183.43
1182.27
1181.3
1180.5
1184.75
1183.4
1182.24
1181.28
1180.48
1184.69
1183.34
1182.19
1181.22
1180.43
1184.68
1183.34
1182.19
1181.23
1180.43
1184.79
1183.42
1182.27
1181.3
1180.5
1184.7
1183.3
1182.14
1181.17
1180.37
1184.79
1183.4
1182.24
1181.27
1180.48
1184.68
1183.28
1182.11
1181.15
1180.35
1184.77
1183.41
1182.26
1181.29
1180.49
1184.67
1183.27
1182.11
1181.15
1180.35
1184.77
1183.41
1182.26
1181.29
1180.5
1184.65
1183.25
1182.1
1181.13
1180.34
1184.78
1183.39
1182.23
1181.26
1180.46
1184.66
1183.24
1182.08
1181.11
1180.31
1184.77
1183.38
1182.22
1181.25
1180.45
1184.66
1183.24
1182.08
1181.11
1180.31
1184.76
1183.36
1182.2
1181.23
1180.43
1184.65
1183.23
1182.06
1181.09
1180.29
1184.71
1183.3
1182.14
1181.17
1180.37
1184.61
1183.2
1182.03
1181.06
1180.26
1184.63
1183.22
1182.06
1181.09
1180.29
1185.3
1185.12
1185.28
1185.09
1185.22
1185.03
1185.14
1184.95
1185.01
1184.84
1184.68
1184.47
1184.82
1184.64
1184.55
1184.32
1184.43
1184.2
1183.23
1181.22
1179.6
1178.25
1177.13
1183.25
1181.22
1179.57
1178.21
1177.07
1183.21
1181.21
1179.6
1178.25
1177.13
1183.22
1181.2
1179.57
1178.2
1177.06
1183.17
1181.19
1179.58
1178.24
1177.12
1183.18
1181.18
1179.55
1178.2
1177.06
1183.11
1181.16
1179.56
1178.23
1177.11
1183.13
1181.15
1179.53
1178.18
1177.05
1183.02
1181.1
1179.53
1178.21
1177.1
1183.06
1181.11
1179.51
1178.17
1177.04
1182.82
1180.99
1179.46
1178.17
1177.07
1182.84
1180.98
1179.43
1178.12
1177.01
1182.92
1181.05
1179.5
1178.19
1177.08
1182.96
1181.05
1179.47
1178.15
1177.02
1182.73
1180.92
1179.42
1178.14
1177.05
1182.73
1180.91
1179.39
1178.09
1176.99
1182.63
1180.86
1179.38
1178.12
1177.04
1182.62
1180.83
1179.34
1178.07
1176.97
1188.98
1188.83
1189.04
1189.2
1189.64
1189.43
1189.65
1189.42
1189.49
1189.26
1189.49
1189.28
1184.24
1184.34
1184.54
1184.84
1185.24
1185.72
1184.21
1184.31
1184.5
1184.78
1185.15
1185.58
1184.07
1183.8
1184.17
1183.92
1184.39
1184.17
1184.73
1184.56
1185.18
1185.05
1185.7
1185.56
1186.23
1186.73
1187.18
1187.55
1187.84
1188.02
1186.03
1186.48
1186.89
1187.24
1187.5
1187.66
1184.57
1184.69
1184.67
1184.49
1184.16
1184.67
1184.79
1184.77
1184.59
1184.26
1184.86
1184.99
1184.97
1184.79
1184.46
1185.17
1185.29
1185.27
1185.09
1184.77
1185.56
1185.69
1185.67
1185.5
1185.17
1186.04
1186.18
1186.16
1185.98
1185.66
1184.54
1184.66
1184.64
1184.46
1184.13
1184.63
1184.76
1184.73
1184.56
1184.23
1184.82
1184.95
1184.93
1184.75
1184.42
1185.11
1185.24
1185.21
1185.04
1184.71
1185.47
1185.6
1185.58
1185.41
1185.08
1185.9
1186.04
1186.02
1185.84
1185.52
1184.39
1184.52
1184.49
1184.32
1183.99
1184.13
1184.25
1184.23
1184.05
1183.72
1184.5
1184.63
1184.6
1184.42
1184.1
1184.25
1184.37
1184.35
1184.17
1183.84
1184.72
1184.85
1184.82
1184.65
1184.32
1184.49
1184.62
1184.6
1184.42
1184.09
1185.06
1185.19
1185.16
1184.99
1184.66
1184.88
1185.01
1184.99
1184.81
1184.48
1185.51
1185.64
1185.61
1185.44
1185.11
1185.38
1185.51
1185.49
1185.31
1184.98
1186.03
1186.16
1186.14
1185.97
1185.64
1185.89
1186.02
1186.01
1185.83
1185.51
1186.57
1186.7
1186.68
1186.51
1186.19
1187.07
1187.21
1187.2
1187.03
1186.71
1187.52
1187.66
1187.66
1187.49
1187.17
1187.9
1188.05
1188.06
1187.9
1187.59
1188.19
1188.35
1188.36
1188.21
1187.9
1188.38
1188.54
1188.55
1188.4
1188.09
1186.37
1186.5
1186.48
1186.31
1185.99
1186.82
1186.96
1186.94
1186.78
1186.45
1187.23
1187.37
1187.37
1187.2
1186.88
1187.58
1187.73
1187.73
1187.57
1187.25
1187.85
1188
1188
1187.84
1187.52
1188
1188.16
1188.16
1188
1187.69
1184.25
1184.36
1184.57
1184.89
1185.31
1185.82
1184.22
1184.32
1184.53
1184.83
1185.22
1185.68
1184.07
1183.81
1184.19
1183.94
1184.42
1184.2
1184.78
1184.61
1185.25
1185.12
1185.81
1185.69
1186.39
1186.93
1187.4
1187.77
1188
1188.08
1186.17
1186.65
1187.07
1187.4
1187.61
1187.7
1184.57
1184.7
1184.67
1184.5
1184.17
1184.68
1184.81
1184.78
1184.61
1184.28
1184.89
1185.02
1185
1184.82
1184.49
1185.21
1185.34
1185.31
1185.14
1184.81
1185.64
1185.76
1185.74
1185.56
1185.23
1186.15
1186.28
1186.26
1186.08
1185.75
1184.54
1184.67
1184.64
1184.47
1184.14
1184.65
1184.78
1184.75
1184.57
1184.25
1184.85
1184.98
1184.96
1184.78
1184.45
1185.16
1185.28
1185.26
1185.08
1184.76
1185.55
1185.68
1185.65
1185.48
1185.15
1186.01
1186.14
1186.11
1185.94
1185.61
1184.4
1184.52
1184.5
1184.32
1183.99
1184.13
1184.26
1184.23
1184.06
1183.73
1184.51
1184.64
1184.62
1184.44
1184.11
1184.26
1184.39
1184.36
1184.19
1183.86
1184.75
1184.87
1184.85
1184.67
1184.34
1184.52
1184.65
1184.62
1184.45
1184.12
1185.1
1185.23
1185.21
1185.03
1184.7
1184.93
1185.06
1185.03
1184.86
1184.53
1185.58
1185.71
1185.68
1185.51
1185.18
1185.45
1185.58
1185.55
1185.38
1185.05
1186.14
1186.27
1186.25
1186.07
1185.74
1186.02
1186.15
1186.12
1185.95
1185.62
1186.71
1186.84
1186.82
1186.65
1186.32
1187.26
1187.39
1187.37
1187.2
1186.87
1187.73
1187.87
1187.86
1187.69
1187.36
1188.11
1188.25
1188.25
1188.08
1187.76
1188.35
1188.5
1188.5
1188.35
1188.03
1188.44
1188.59
1188.6
1188.45
1188.14
1186.5
1186.63
1186.61
1186.44
1186.11
1186.98
1187.11
1187.09
1186.92
1186.6
1187.4
1187.54
1187.52
1187.36
1187.03
1187.74
1187.88
1187.87
1187.7
1187.38
1187.96
1188.1
1188.1
1187.94
1187.62
1188.05
1188.2
1188.2
1188.04
1187.72
1188.49
1188.33
1186.97
1186.37
1186.34
1186.2
1186.73
1188.7
1188.52
1188.35
1188.05
1187.71
1187.92
1187.36
1187.34
1187.06
1188.69
1188.33
1187.74
1187.66
1187.99
1187.88
1187.5
1187.4
1186.87
1186.84
1187.34
1187.31
1188.58
1188.33
1188.56
1188.2
1188.04
1188.35
1187.54
1187.02
1187.66
1188.94
1189.11
1189.12
1189
1188.74
1188.71
1188.88
1188.9
1188.77
1188.46
1187.3
1187.43
1187.41
1187.24
1186.91
1186.7
1186.83
1186.81
1186.63
1186.3
1186.67
1186.8
1186.78
1186.6
1186.27
1186.53
1186.65
1186.63
1186.46
1186.13
1187.06
1187.19
1187.17
1187
1186.67
1189.11
1189.24
1189.24
1189.1
1188.84
1188.92
1189.05
1189.04
1188.89
1188.61
1188.7
1188.85
1188.84
1188.68
1188.37
1188.43
1188.55
1188.53
1188.37
1188.07
1188.04
1188.18
1188.17
1188
1187.67
1188.26
1188.4
1188.39
1188.22
1187.9
1187.7
1187.83
1187.81
1187.64
1187.32
1187.67
1187.81
1187.79
1187.62
1187.3
1187.39
1187.53
1187.51
1187.34
1187.01
1189.09
1189.24
1189.24
1189.1
1188.84
1188.67
1188.82
1188.82
1188.66
1188.34
1188.07
1188.21
1188.19
1188.03
1187.7
1187.99
1188.13
1188.11
1187.94
1187.62
1188.32
1188.46
1188.45
1188.29
1187.97
1188.21
1188.35
1188.34
1188.17
1187.85
1187.84
1187.97
1187.96
1187.79
1187.46
1187.73
1187.86
1187.85
1187.67
1187.35
1187.2
1187.34
1187.32
1187.14
1186.82
1187.17
1187.3
1187.28
1187.11
1186.78
1187.67
1187.8
1187.79
1187.62
1187.29
1187.64
1187.78
1187.76
1187.59
1187.26
1189.01
1189.17
1189.18
1189.05
1188.79
1188.7
1188.86
1188.87
1188.72
1188.41
1188.95
1189.1
1189.1
1188.96
1188.68
1188.55
1188.7
1188.7
1188.54
1188.22
1188.38
1188.53
1188.52
1188.36
1188.04
1188.7
1188.85
1188.85
1188.69
1188.38
1187.87
1188.01
1187.99
1187.82
1187.5
1187.35
1187.48
1187.46
1187.29
1186.96
1188
1188.13
1188.12
1187.95
1187.63
1187.36
1187.68
1187.85
1187.86
1187.73
1187.39
1189.07
1189.06
1189.34
1189.35
1189.03
1188.99
1189.32
1189.28
1188.75
1188.39
1188.75
1188.43
1188.71
1188.71
1188.48
1189.09
1189.07
1189.36
1189.37
1189.04
1188.98
1189.33
1189.28
1188.74
1188.36
1188.74
1188.4
1188.69
1188.7
1188.45
1189.09
1189.06
1189.35
1189.38
1189.01
1188.95
1189.31
1189.25
1188.72
1188.26
1188.71
1188.3
1188.65
1188.66
1188.36
1188.98
1188.94
1189.24
1189.27
1188.89
1188.8
1189.19
1189.11
1188.59
1188.09
1188.57
1188.13
1188.51
1188.5
1188.19
1188.77
1188.74
1189.03
1189.07
1188.67
1188.57
1188.97
1188.88
1188.38
1187.9
1188.36
1187.93
1188.29
1188.27
1187.99
1188.41
1188.37
1188.66
1188.7
1188.31
1188.21
1188.6
1188.51
1188.04
1187.61
1188.03
1187.64
1187.96
1187.94
1187.69
1189.71
1189.71
1189.56
1189.57
1189.7
1189.68
1189.55
1189.52
1189.79
1189.82
1189.78
1189.81
1189.78
1189.76
1189.8
1189.73
1189.73
1189.58
1189.59
1189.7
1189.67
1189.55
1189.51
1189.81
1189.82
1189.8
1189.81
1189.78
1189.75
1189.78
1189.74
1189.72
1189.57
1189.59
1189.69
1189.64
1189.54
1189.48
1189.79
1189.74
1189.77
1189.73
1189.73
1189.7
1189.7
1189.63
1189.61
1189.47
1189.49
1189.56
1189.5
1189.42
1189.35
1189.67
1189.57
1189.64
1189.55
1189.58
1189.54
1189.53
1189.42
1189.39
1189.25
1189.28
1189.33
1189.26
1189.2
1189.12
1189.44
1189.32
1189.41
1189.31
1189.34
1189.28
1189.28
1189.04
1189.01
1188.88
1188.91
1188.95
1188.88
1188.82
1188.74
1189.06
1188.99
1189.03
1188.97
1188.98
1188.92
1188.94
1186.49
1186.57
1186.73
1186.85
1186.98
1187.12
1187.26
1187.37
1187.1
1187.24
1186.88
1187.02
1186.68
1186.81
1186.5
1186.59
1187.15
1187.36
1187.38
1187.65
1187.5
1187.75
1187.72
1188.04
1186.34
1186.05
1186.42
1186.14
1186.57
1186.29
1186.7
1186.42
1187.07
1186.83
1187.32
1187.01
1186.57
1186.8
1187.63
1188.02
1187.91
1188.2
1187.96
1188.31
1188.28
1188.54
1187.32
1187.7
1187.58
1187.87
1187.03
1187.4
1185.7
1185.42
1185.82
1185.51
1185.94
1185.59
1186.1
1185.76
1186.27
1185.83
1186.59
1186.14
1186.85
1186.39
1187.17
1186.7
1187.4
1187.51
1187.75
1187.82
1187.88
1187.98
1188.18
1188.28
1187.31
1187.31
1186.93
1187
1188.03
1188.07
1188.29
1188.27
1188.43
1188.51
1188.67
1188.7
1187.61
1187.56
1187.89
1187.76
1186.85
1186.33
1186.77
1186.22
1186.48
1185.97
1186.46
1185.9
1187.16
1186.64
1187.02
1186.47
1187.45
1186.92
1187.22
1186.67
1185.12
1184.61
1185.03
1184.56
1185.34
1184.85
1185.17
1184.71
1185.68
1185.27
1185.39
1185
1186.94
1187.48
1186.43
1186.06
1185.57
1187.33
1186.75
1186.12
1185.73
1185.25
1187.6
1187.1
1186.61
1186.12
1185.57
1184.14
1183.81
1184
1183.73
1184.4
1184.02
1184.18
1183.89
1184.84
1184.41
1184.48
1184.14
1187.1
1186.69
1186.47
1185.96
1185.87
1185.37
1185.42
1184.95
1184.8
1184.37
1187.43
1187.1
1186.86
1186.38
1186.33
1185.8
1185.78
1185.23
1185.04
1184.5
1187.3
1186.79
1187.66
1187.2
1187.87
1187.61
1188.21
1188
1187.06
1186.5
1186.72
1186.12
1187.94
1187.49
1188.13
1187.69
1188.46
1188.26
1188.64
1188.45
1187.35
1186.79
1187.54
1186.99
1186.35
1185.72
1185.45
1184.74
1186.07
1185.4
1185.25
1184.54
1186.59
1185.98
1185.62
1184.92
1186.81
1186.19
1185.84
1185.18
1183.5
1183.13
1182.67
1183.55
1183.22
1182.77
1183.67
1183.27
1182.79
1183.69
1183.34
1182.87
1184
1183.56
1183.05
1183.88
1183.48
1182.97
1186.17
1185.58
1184.95
1185.37
1184.8
1184.2
1184.81
1184.27
1183.69
1184.46
1183.95
1183.37
1184.04
1183.57
1182.98
1186.61
1185.94
1185.22
1185.67
1184.95
1184.2
1185.06
1184.37
1183.65
1184.57
1183.94
1183.25
1184.02
1183.47
1182.8
1188.09
1188.3
1188.27
1188.54
1187.83
1188.08
1188.03
1188.34
1187.93
1188.17
1187.98
1188.2
1188.09
1188.29
1188.18
1188.36
1188.48
1188.31
1188.64
1188.43
1188.42
1188.57
1188.74
1188.96
1188.57
1188.8
1188.61
1188.85
1188.8
1189
1188.66
1188.89
1188.42
1188.63
1188.37
1188.54
1188.52
1188.72
1188.52
1188.67
1188.64
1188.83
1188.75
1188.89
1188.84
1188.92
1189.02
1189.04
1188.52
1188.67
1188.76
1188.92
1188.25
1188.38
1188.52
1188.65
1188.9
1189.08
1188.68
1188.87
1188.97
1189.12
1189.18
1189.28
1188.75
1188.87
1188.97
1189.05
1189.09
1189.26
1189.28
1189.41
1189
1189.07
1189.16
1189.14
1188.82
1188.94
1188.97
1188.98
1189.16
1189.19
1189.31
1189.26
1189.33
1189.31
1189.44
1189.36
1188.31
1188.1
1188.57
1188.38
1188.37
1188.14
1188.62
1188.42
1188.46
1188.26
1188.69
1188.51
1188.28
1187.94
1188.47
1188.63
1188.77
1187.8
1188.14
1188.28
1188.44
1188.62
1188.07
1188.4
1188.64
1188.77
1188.82
1187.78
1187.36
1188.07
1187.67
1187.85
1187.45
1188.14
1187.76
1188
1187.61
1188.28
1187.93
1187.61
1187.25
1187.97
1187.61
1188.14
1187.79
1188.29
1187.93
1188.47
1188.14
1187.94
1187.7
1188.29
1188.05
1188.51
1188.26
1188.64
1188.34
1188.68
1188.35
1188.65
1188.5
1188.9
1188.79
1188.34
1188.19
1188.63
1188.54
1189.05
1188.89
1188.83
1188.63
1189.08
1189
1189.24
1189.16
1188.84
1188.77
1189.01
1188.94
1189.21
1189.08
1189.35
1189.22
1189.09
1188.87
1189
1188.73
1188.89
1188.63
1188.86
1188.55
1189.23
1189.05
1189.12
1188.87
1189.35
1189.17
1189.23
1189
1186.79
1186.22
1185.66
1186.99
1186.35
1185.79
1186.91
1186.33
1185.76
1187.12
1186.47
1185.89
1187.11
1186.53
1185.95
1187.32
1186.64
1186.02
1186.78
1186.2
1185.57
1187.14
1186.56
1185.92
1187.32
1186.72
1186.08
1187.45
1186.85
1186.23
1187.53
1186.83
1186.15
1187.29
1186.65
1185.94
1187.64
1187
1186.29
1187.82
1187.16
1186.43
1187.85
1187.17
1186.44
1187.73
1186.99
1186.24
1188.6
1188.23
1187.52
1186.37
1188.49
1188.09
1187.37
1186.21
1188.66
1188.26
1187.56
1186.39
1188.58
1188.17
1187.44
1186.27
1188.72
1188.31
1187.63
1186.49
1188.74
1188.3
1187.58
1186.42
1188.72
1188.24
1187.47
1186.29
1188.77
1188.25
1187.46
1186.27
1188.87
1188.4
1187.68
1186.53
1188.85
1188.34
1187.68
1186.63
1188.77
1188.33
1187.68
1186.61
1188.74
1188.27
1187.64
1186.65
1188.94
1188.44
1187.68
1186.49
1188.94
1188.41
1187.7
1186.64
1189.02
1188.48
1187.7
1186.51
1189.01
1188.46
1187.74
1186.67
1188.58
1188.23
1187.59
1186.49
1188.43
1188.11
1187.54
1186.58
1188.6
1188.24
1187.6
1186.51
1188.44
1188.11
1187.54
1186.58
1188.62
1188.24
1187.62
1186.56
1188.48
1188.12
1187.55
1186.6
1188.64
1188.23
1187.62
1186.62
1188.51
1188.13
1187.56
1186.63
1188.62
1188.19
1187.6
1186.68
1188.19
1187.9
1187.37
1186.65
1187.91
1187.64
1187.1
1186.4
1188.22
1187.91
1187.38
1186.66
1187.95
1187.66
1187.1
1186.4
1188.28
1187.94
1187.39
1186.67
1188.01
1187.68
1187.11
1186.41
1188.37
1187.98
1187.42
1186.69
1188.1
1187.72
1187.14
1186.43
1188.47
1188.04
1187.46
1186.72
1188.19
1187.76
1187.16
1186.44
1188.66
1188.14
1187.5
1186.74
1188.4
1187.88
1187.23
1186.48
1188.57
1188.09
1187.48
1186.73
1188.3
1187.82
1187.19
1186.46
1188.73
1188.18
1187.52
1186.74
1188.49
1187.93
1187.25
1186.5
1188.8
1188.22
1187.55
1186.76
1188.56
1187.98
1187.28
1186.52
1184.7
1183.38
1182.24
1181.28
1180.49
1184.6
1183.29
1182.16
1181.2
1180.4
1184.71
1183.38
1182.24
1181.28
1180.49
1184.62
1183.3
1182.17
1181.21
1180.41
1184.73
1183.39
1182.25
1181.29
1180.49
1184.69
1183.36
1182.22
1181.26
1180.47
1184.64
1183.32
1182.18
1181.22
1180.42
1184.66
1183.33
1182.19
1181.22
1180.43
1184.74
1183.39
1182.25
1181.29
1180.49
1184.65
1183.27
1182.12
1181.16
1180.37
1184.72
1183.37
1182.22
1181.26
1180.47
1184.63
1183.24
1182.1
1181.14
1180.34
1184.74
1183.39
1182.24
1181.28
1180.49
1184.64
1183.25
1182.1
1181.14
1180.35
1184.75
1183.4
1182.25
1181.29
1180.5
1184.64
1183.25
1182.1
1181.13
1180.34
1184.69
1183.34
1182.2
1181.24
1180.45
1184.57
1183.19
1182.05
1181.09
1180.3
1184.69
1183.33
1182.19
1181.23
1180.44
1184.57
1183.19
1182.05
1181.09
1180.29
1184.68
1183.32
1182.17
1181.22
1180.42
1184.56
1183.18
1182.04
1181.08
1180.28
1184.64
1183.26
1182.12
1181.16
1180.36
1184.54
1183.16
1182.01
1181.05
1180.25
1184.57
1183.19
1182.04
1181.08
1180.28
1183.07
1182.92
1183.16
1183
1183.3
1183.13
1183.49
1183.28
1183.69
1183.44
1184.02
1183.75
1183.86
1183.59
1184.17
1183.91
1184.3
1184.07
1181.78
1180.37
1179.1
1177.96
1176.93
1181.78
1180.35
1179.07
1177.92
1176.87
1181.82
1180.39
1179.11
1177.97
1176.93
1181.81
1180.36
1179.08
1177.92
1176.87
1181.89
1180.42
1179.13
1177.97
1176.94
1181.88
1180.4
1179.09
1177.92
1176.87
1181.99
1180.47
1179.15
1177.99
1176.95
1181.97
1180.44
1179.11
1177.94
1176.88
1182.1
1180.52
1179.18
1178
1176.95
1182.06
1180.49
1179.14
1177.95
1176.89
1182.33
1180.66
1179.26
1178.04
1176.98
1182.28
1180.62
1179.21
1177.98
1176.92
1182.21
1180.59
1179.22
1178.02