/*--------------------------------*- C++ -*----------------------------------*\
  =========                 |
  \\      /  F ield         | OpenFOAM: The Open Source CFD Toolbox
   \\    /   O peration     | Website:  https://openfoam.org
    \\  /    A nd           | Version:  13
     \\/     M anipulation  |
\*---------------------------------------------------------------------------*/
FoamFile
{
    format      ascii;
    class       volScalarField;
    location    "384.831886";
    object      T;
}
// * * * * * * * * * * * * * * * * * * * * * * * * * * * * * * * * * * * * * //

dimensions      [0 0 0 1 0 0 0];

internalField   nonuniform List<scalar> 
5712
(
1178.13
1178.22
1178.37
1178.51
1178.69
1178.84
1179.09
1179.22
1178.96
1179.1
1178.64
1178.78
1178.39
1178.52
1178.19
1178.29
1178.84
1179.04
1179.09
1179.37
1179.34
1179.58
1179.57
1179.89
1177.88
1177.45
1177.98
1177.57
1178.12
1177.71
1178.27
1177.87
1178.66
1178.38
1178.92
1178.57
1178.01
1178.3
1179.39
1179.83
1179.66
1180
1179.85
1180.23
1180.16
1180.45
1178.95
1179.41
1179.23
1179.58
1178.58
1179.03
1176.95
1176.61
1177.15
1176.79
1177.2
1176.78
1177.45
1177.05
1177.57
1177.02
1177.99
1177.46
1178.32
1177.79
1178.71
1178.17
1179.03
1179.12
1179.42
1179.48
1179.69
1179.8
1180.02
1180.12
1178.83
1178.77
1178.39
1178.4
1179.75
1179.76
1180.05
1180
1180.31
1180.38
1180.58
1180.61
1179.2
1179.07
1179.52
1179.31
1178.23
1177.6
1178.04
1177.35
1177.77
1177.13
1177.67
1176.96
1178.62
1178
1178.35
1177.66
1178.97
1178.35
1178.59
1177.92
1176.18
1175.48
1176.06
1175.38
1176.42
1175.75
1176.2
1175.55
1176.8
1176.28
1176.43
1175.89
1178.49
1179.26
1177.77
1177.23
1176.6
1179.1
1178.28
1177.41
1176.84
1176.18
1179.38
1178.66
1177.95
1177.26
1176.54
1174.83
1174.46
1174.54
1174.22
1175.16
1174.73
1174.77
1174.42
1175.73
1175.25
1175.16
1174.75
1178.85
1178.43
1177.95
1177.41
1177.11
1176.56
1176.45
1175.91
1175.54
1175.03
1179.19
1178.85
1178.38
1177.84
1177.61
1177
1176.82
1176.18
1175.79
1175.13
1178.87
1178.27
1179.28
1178.75
1179.67
1179.43
1180.05
1179.87
1178.45
1177.78
1178.05
1177.33
1179.63
1179.1
1179.86
1179.35
1180.35
1180.17
1180.57
1180.41
1178.81
1178.13
1179.04
1178.37
1177.47
1176.68
1176.23
1175.3
1177.14
1176.31
1176
1175.08
1177.77
1177.01
1176.44
1175.53
1178.05
1177.28
1176.73
1175.86
1174.23
1173.94
1173.53
1174.22
1174
1173.61
1174.44
1174.12
1173.68
1174.38
1174.15
1173.73
1174.87
1174.49
1174.03
1174.63
1174.35
1173.89
1177.9
1177.31
1176.67
1176.8
1176.24
1175.65
1175.98
1175.48
1174.93
1175.42
1174.97
1174.43
1174.83
1174.47
1173.94
1178.36
1177.68
1176.96
1177.08
1176.36
1175.62
1176.22
1175.56
1174.87
1175.52
1174.96
1174.32
1174.82
1174.4
1173.79
1180.18
1180.39
1180.37
1180.64
1179.81
1180.05
1180.02
1180.33
1180.13
1180.44
1180.19
1180.46
1180.27
1180.54
1180.36
1180.61
1180.67
1180.49
1180.8
1180.58
1180.65
1180.8
1180.84
1181.08
1180.57
1180.83
1180.8
1181.05
1180.98
1181.2
1180.9
1181.14
1180.74
1181
1180.69
1180.91
1180.82
1181.08
1180.82
1181.03
1180.92
1181.18
1181.04
1181.25
1181.13
1181.29
1181.32
1181.42
1180.62
1180.78
1180.87
1181.04
1180.23
1180.36
1180.51
1180.65
1181.1
1181.3
1180.87
1181.07
1181.1
1181.25
1181.32
1181.44
1180.77
1180.89
1181.01
1181.1
1181.31
1181.49
1181.51
1181.66
1181.28
1181.43
1181.44
1181.49
1181.09
1181.29
1181.24
1181.33
1181.45
1181.56
1181.61
1181.63
1181.63
1181.7
1181.76
1181.75
1180.66
1180.45
1180.94
1180.75
1180.7
1180.48
1180.98
1180.78
1180.76
1180.56
1181.05
1180.86
1180.4
1179.91
1180.68
1180.91
1181.12
1179.77
1180.24
1180.49
1180.72
1180.96
1180.04
1180.51
1180.84
1181.04
1181.16
1180.13
1179.7
1180.43
1180.03
1180.19
1179.77
1180.5
1180.11
1180.3
1179.91
1180.62
1180.26
1179.57
1179.21
1180.08
1179.72
1180.35
1179.99
1180.56
1180.2
1180.8
1180.46
1179.9
1179.67
1180.39
1180.16
1180.71
1180.46
1180.9
1180.6
1181.01
1180.66
1180.77
1180.64
1181.03
1180.95
1180.34
1180.21
1180.64
1180.59
1181.26
1181.12
1181.03
1180.84
1181.23
1181.19
1181.41
1181.38
1180.88
1180.86
1181.08
1181.07
1181.44
1181.33
1181.61
1181.5
1181.37
1181.15
1181.35
1181.06
1181.16
1180.9
1181.19
1180.87
1181.53
1181.35
1181.48
1181.22
1181.67
1181.5
1181.6
1181.37
1179.13
1178.55
1177.99
1179.34
1178.68
1178.12
1179.23
1178.64
1178.07
1179.45
1178.79
1178.21
1179.4
1178.82
1178.23
1179.63
1178.94
1178.32
1178.73
1178.14
1177.51
1179.24
1178.65
1178.01
1179.51
1178.9
1178.25
1179.7
1179.09
1178.47
1179.83
1179.1
1178.42
1179.27
1178.63
1177.91
1179.75
1179.11
1178.4
1180.01
1179.34
1178.62
1180.1
1179.41
1178.67
1180.01
1179.25
1178.5
1181
1180.6
1179.82
1178.49
1180.89
1180.47
1179.67
1178.33
1181.05
1180.64
1179.86
1178.52
1180.98
1180.55
1179.73
1178.39
1181.12
1180.69
1179.94
1178.64
1181.15
1180.69
1179.89
1178.56
1181.13
1180.63
1179.78
1178.41
1181.2
1180.66
1179.77
1178.4
1181.27
1180.79
1180.01
1178.69
1181.25
1180.75
1180.02
1178.83
1181.17
1180.72
1180
1178.78
1181.14
1180.66
1179.98
1178.86
1181.36
1180.84
1180
1178.64
1181.36
1180.82
1180.05
1178.84
1181.45
1180.89
1180.03
1178.67
1181.44
1180.88
1180.1
1178.89
1180.98
1180.61
1179.9
1178.64
1180.82
1180.49
1179.87
1178.77
1180.99
1180.62
1179.91
1178.67
1180.83
1180.49
1179.87
1178.78
1181.02
1180.63
1179.94
1178.73
1180.87
1180.5
1179.88
1178.8
1181.03
1180.61
1179.95
1178.81
1180.9
1180.51
1179.89
1178.84
1181.02
1180.58
1179.94
1178.89
1180.58
1180.28
1179.71
1178.91
1180.31
1180.03
1179.44
1178.7
1180.61
1180.3
1179.72
1178.93
1180.34
1180.04
1179.45
1178.7
1180.67
1180.33
1179.74
1178.94
1180.4
1180.07
1179.46
1178.72
1180.76
1180.37
1179.77
1178.97
1180.48
1180.11
1179.49
1178.73
1180.87
1180.43
1179.81
1179
1180.58
1180.16
1179.51
1178.75
1181.06
1180.54
1179.86
1179.03
1180.8
1180.29
1179.59
1178.8
1180.97
1180.49
1179.84
1179.01
1180.69
1180.22
1179.55
1178.78
1181.15
1180.6
1179.89
1179.04
1180.9
1180.35
1179.63
1178.83
1181.23
1180.65
1179.92
1179.06
1180.99
1180.41
1179.67
1178.86
1176.51
1174.92
1173.55
1172.43
1171.56
1176.41
1174.83
1173.47
1172.35
1171.48
1176.52
1174.92
1173.56
1172.43
1171.56
1176.43
1174.84
1173.48
1172.36
1171.48
1176.54
1174.93
1173.56
1172.44
1171.56
1176.5
1174.91
1173.54
1172.42
1171.54
1176.46
1174.86
1173.49
1172.37
1171.49
1176.48
1174.88
1173.51
1172.38
1171.5
1176.56
1174.94
1173.57
1172.44
1171.56
1176.48
1174.82
1173.44
1172.31
1171.44
1176.54
1174.91
1173.54
1172.41
1171.54
1176.45
1174.79
1173.41
1172.29
1171.41
1176.56
1174.94
1173.56
1172.44
1171.56
1176.46
1174.8
1173.42
1172.3
1171.42
1176.58
1174.95
1173.57
1172.45
1171.57
1176.47
1174.8
1173.42
1172.29
1171.41
1176.5
1174.88
1173.51
1172.39
1171.51
1176.38
1174.73
1173.36
1172.24
1171.37
1176.5
1174.87
1173.5
1172.38
1171.51
1176.39
1174.73
1173.36
1172.24
1171.36
1176.5
1174.86
1173.49
1172.37
1171.49
1176.38
1174.73
1173.35
1172.23
1171.35
1176.46
1174.81
1173.43
1172.31
1171.43
1176.36
1174.7
1173.32
1172.2
1171.32
1176.39
1174.73
1173.35
1172.23
1171.35
1173.14
1172.93
1173.23
1173.02
1173.41
1173.17
1173.64
1173.36
1173.87
1173.55
1174.25
1173.89
1174.06
1173.7
1174.44
1174.09
1174.62
1174.3
1171.08
1168.8
1166.82
1165.16
1163.86
1171.1
1168.8
1166.8
1165.13
1163.81
1171.12
1168.83
1166.83
1165.17
1163.87
1171.14
1168.82
1166.81
1165.13
1163.81
1171.21
1168.87
1166.86
1165.19
1163.89
1171.22
1168.87
1166.84
1165.15
1163.83
1171.33
1168.94
1166.91
1165.22
1163.91
1171.33
1168.93
1166.87
1165.17
1163.85
1171.47
1169.03
1166.96
1165.26
1163.94
1171.45
1169
1166.92
1165.21
1163.87
1171.78
1169.23
1167.1
1165.36
1164.03
1171.73
1169.19
1167.05
1165.3
1163.96
1171.62
1169.13
1167.03
1165.31
1163.98
1171.58
1169.09
1166.98
1165.25
1163.91
1171.92
1169.34
1167.18
1165.42
1164.08
1171.89
1169.3
1167.13
1165.37
1164.01
1172.07
1169.45
1167.26
1165.49
1164.14
1172.06
1169.43
1167.23
1165.44
1164.07
1180.83
1180.58
1180.24
1180.54
1179.87
1179.94
1179.98
1180.07
1179.92
1180.03
1179.55
1179.68
1179.3
1179.45
1179.57
1179.7
1179.66
1179.75
1179.65
1179.72
1180.44
1180.4
1178.88
1178.33
1178.24
1178.14
1178.64
1179.48
1178.97
1179.41
1178.46
1177.76
1179.12
1179.04
1178.48
1178.91
1178.72
1178.6
1179.86
1179.71
1179.29
1179.33
1179.55
1179.6
1179.37
1179.2
1178.6
1178.66
1179
1179.07
1180.26
1180.23
1180.08
1180.02
1179.81
1179.89
1179.35
1178.88
1179.4
1181
1181.25
1181.33
1181.25
1181.01
1180.84
1181.06
1181.13
1181.03
1180.75
1179.23
1179.38
1179.38
1179.22
1178.9
1178.67
1178.81
1178.8
1178.63
1178.31
1178.58
1178.72
1178.72
1178.56
1178.24
1178.48
1178.62
1178.61
1178.45
1178.13
1178.98
1179.13
1179.13
1178.97
1178.65
1180.1
1180.44
1180.6
1180.57
1180.39
1179.63
1180
1180.17
1180.16
1179.96
1179.88
1180.15
1180.27
1180.2
1179.94
1179.09
1179.46
1179.61
1179.58
1179.35
1178.37
1178.76
1178.92
1178.89
1178.66
1179.51
1179.72
1179.78
1179.67
1179.38
1179.48
1179.74
1179.83
1179.75
1179.48
1178.91
1179.16
1179.26
1179.17
1178.9
1179.28
1179.47
1179.51
1179.39
1179.09
1179.12
1179.33
1179.38
1179.27
1178.98
1178.98
1179.16
1179.2
1179.07
1178.77
1180.43
1180.72
1180.83
1180.79
1180.58
1180.13
1180.37
1180.45
1180.36
1180.08
1179.67
1179.86
1179.9
1179.78
1179.48
1179.7
1179.88
1179.91
1179.78
1179.47
1179.93
1180.13
1180.18
1180.06
1179.77
1179.97
1180.15
1180.18
1180.05
1179.75
1179.72
1179.88
1179.9
1179.75
1179.44
1179.56
1179.72
1179.73
1179.59
1179.28
1178.96
1179.12
1179.13
1178.99
1178.68
1179.01
1179.16
1179.16
1179.01
1178.7
1179.37
1179.54
1179.57
1179.43
1179.13
1179.42
1179.59
1179.6
1179.46
1179.15
1180.81
1181.07
1181.16
1181.09
1180.87
1180.65
1180.87
1180.93
1180.83
1180.54
1180.56
1180.8
1180.89
1180.82
1180.57
1180.42
1180.61
1180.66
1180.54
1180.25
1180.18
1180.37
1180.41
1180.28
1179.98
1180.3
1180.53
1180.6
1180.5
1180.22
1179.71
1179.87
1179.89
1179.75
1179.44
1179.22
1179.38
1179.38
1179.23
1178.91
1179.76
1179.94
1179.96
1179.83
1179.52
1180.97
1180.76
1180.96
1180.72
1181.34
1181.1
1181.35
1181.13
1180.94
1180.91
1180.72
1180.76
1181.33
1181.31
1181.11
1181.17
1180.56
1180.14
1180.36
1179.96
1180.56
1180.18
1180.33
1179.96
1180.33
1180.53
1180.43
1180.56
1180.23
1180.03
1180.44
1180.2
1180.55
1180.3
1180.82
1180.57
1180.97
1180.73
1180.06
1179.81
1180.2
1179.92
1179.75
1179.46
1179.73
1179.35
1179.57
1179.2
1179.77
1179.32
1179.56
1179.16
1179.85
1179.26
1179.71
1179.18
1179.45
1178.91
1179.12
1178.57
1180.76
1180.64
1180.66
1180.52
1181.25
1181.19
1181.15
1181.09
1180.19
1179.86
1180.28
1179.98
1180.5
1180.38
1180.3
1180.21
1180.99
1180.96
1180.8
1180.8
1180.02
1179.72
1179.79
1179.53
1179.66
1179.02
1179.15
1178.44
1179.73
1179.04
1179.25
1178.5
1179.5
1178.88
1179.01
1178.31
1179.26
1178.65
1178.81
1178.13
1179.74
1179.56
1179.32
1179.03
1179.77
1179.62
1179.27
1178.99
1179.83
1179.75
1179.17
1178.94
1180.79
1181.29
1180.28
1179.71
1178.94
1181.3
1180.83
1180.33
1179.73
1178.82
1181.24
1180.7
1180.05
1179.31
1178.51
1179.23
1179.06
1178.22
1177.9
1179.38
1179.2
1178.28
1177.96
1179.59
1179.44
1178.34
1178.02
1181.28
1181.16
1180.77
1180.64
1180.22
1180.09
1179.53
1179.38
1178.24
1177.89
1181.22
1181.09
1180.62
1180.38
1179.91
1179.63
1179.06
1178.73
1177.88
1177.47
1180.45
1180.06
1180.33
1179.92
1181.13
1181.02
1181.03
1180.92
1179.53
1178.99
1179.67
1179.15
1180.23
1179.77
1180.05
1179.56
1180.91
1180.77
1180.75
1180.6
1179.43
1178.82
1179.24
1178.6
1178.55
1177.86
1177.26
1176.41
1178.73
1178.06
1177.5
1176.7
1178.4
1177.69
1177.05
1176.17
1178.26
1177.5
1176.92
1176.07
1178.94
1178.76
1178.02
1177.93
1179.09
1178.89
1178.05
1177.98
1179.29
1179.02
1178.08
1177.98
1180.94
1180.56
1180.4
1180.04
1179.88
1179.56
1179.19
1178.88
1177.99
1177.88
1180.84
1180.43
1180.05
1179.65
1179.31
1178.99
1178.55
1178.34
1177.71
1177.64
1181.9
1181.9
1181.68
1181.77
1181.66
1181.65
1181.43
1181.52
1182.05
1182.13
1181.84
1181.93
1182.05
1182.13
1181.82
1181.91
1181.86
1182.05
1181.9
1182.04
1182.11
1181.92
1181.57
1181.34
1181.32
1181.09
1181.6
1181.34
1181.69
1181.45
1181.67
1181.42
1182.15
1182.08
1181.95
1181.89
1182.16
1182.1
1181.95
1181.91
1182.17
1182.13
1182.02
1181.99
1181.79
1181.79
1181.57
1181.61
1181.93
1181.91
1181.83
1181.84
1181.64
1181.63
1181.54
1181.54
1182
1182.01
1182.09
1182.08
1181.69
1181.73
1181.52
1181.6
1181.4
1181.42
1181.22
1181.27
1181.87
1181.92
1181.7
1181.8
1182.09
1182.06
1182.07
1182.01
1182.18
1182.12
1182.13
1182.04
1181.96
1181.96
1181.99
1181.94
1181.8
1181.83
1181.89
1181.86
1182.23
1182.21
1182.16
1182.12
1182.23
1182.21
1182.16
1182.11
1182.22
1182.2
1182.15
1182.11
1181.96
1181.68
1182.12
1182.2
1182.12
1181.68
1181.95
1182.11
1182.18
1182.09
1181.67
1181.95
1182.1
1182.14
1182.05
1182.09
1181.86
1181.97
1181.74
1182.1
1181.89
1181.99
1181.77
1182.12
1181.93
1182
1181.8
1181.66
1181.55
1181.93
1181.81
1182.07
1181.93
1182.12
1181.96
1182.01
1181.82
1181.67
1181.58
1181.94
1181.84
1182.07
1181.95
1182.09
1181.93
1181.97
1181.78
1181.92
1181.86
1181.82
1181.79
1181.64
1181.6
1181.53
1181.52
1181.97
1181.87
1182.05
1181.93
1181.7
1181.68
1181.57
1181.54
1181.39
1181.4
1181.25
1181.25
1181.86
1181.78
1181.74
1181.65
1181.99
1181.83
1181.86
1181.65
1182.05
1181.87
1181.92
1181.71
1181.9
1181.75
1181.79
1181.57
1181.8
1181.63
1181.71
1181.48
1181.58
1181.31
1181.41
1181.09
1181.63
1181.34
1181.43
1181.1
1181.68
1181.35
1181.47
1181.08
1181.33
1180.95
1181.57
1181.19
1181.69
1181.32
1181.7
1181.32
1181.49
1181.03
1181.38
1180.95
1181.62
1181.17
1181.69
1181.23
1181.63
1181.16
1181.42
1180.9
1181.74
1181.09
1180.15
1178.71
1181.57
1180.92
1179.97
1178.53
1181.75
1181.1
1180.17
1178.72
1181.58
1180.94
1180
1178.57
1181.75
1181.12
1180.22
1178.82
1181.65
1181.02
1180.12
1178.71
1181.47
1180.86
1179.93
1178.52
1181.33
1180.74
1179.83
1178.44
1181.7
1181.08
1180.21
1178.83
1181.62
1180.99
1180.19
1178.96
1181.73
1181.1
1180.26
1178.95
1181.64
1181
1180.22
1179.02
1181.63
1181.03
1180.13
1178.73
1181.58
1180.97
1180.16
1178.92
1181.54
1180.96
1180.07
1178.7
1181.52
1180.93
1180.13
1178.91
1181.8
1181.15
1180.25
1178.88
1181.73
1181.08
1180.26
1179.03
1181.79
1181.14
1180.26
1178.89
1181.71
1181.06
1180.25
1179.03
1181.76
1181.11
1180.26
1178.94
1181.68
1181.04
1180.23
1179.04
1181.7
1181.06
1180.25
1179.01
1181.65
1181
1180.22
1179.06
1181.63
1180.99
1180.22
1179.08
1181.55
1180.9
1180.12
1179.22
1181.32
1180.66
1179.87
1179.03
1181.55
1180.9
1180.12
1179.23
1181.31
1180.66
1179.86
1179.02
1181.54
1180.89
1180.11
1179.22
1181.3
1180.65
1179.85
1179.02
1181.53
1180.88
1180.11
1179.22
1181.29
1180.64
1179.85
1179.01
1181.51
1180.86
1180.1
1179.22
1181.28
1180.62
1179.83
1179
1181.43
1180.79
1180.04
1179.17
1181.21
1180.57
1179.79
1178.96
1181.48
1180.83
1180.07
1179.2
1181.25
1180.6
1179.81
1178.99
1181.37
1180.75
1180
1179.13
1181.15
1180.52
1179.75
1178.93
1181.3
1180.7
1179.96
1179.1
1181.08
1180.46
1179.71
1178.89
1176.64
1174.99
1173.6
1172.46
1171.58
1176.53
1174.91
1173.52
1172.38
1171.5
1176.64
1174.99
1173.6
1172.46
1171.58
1176.54
1174.91
1173.52
1172.39
1171.5
1176.65
1174.99
1173.6
1172.46
1171.58
1176.59
1174.96
1173.57
1172.44
1171.56
1176.52
1174.9
1173.52
1172.39
1171.5
1176.5
1174.89
1173.51
1172.39
1171.51
1176.64
1174.99
1173.6
1172.46
1171.58
1176.55
1174.86
1173.47
1172.33
1171.45
1176.63
1174.97
1173.57
1172.44
1171.55
1176.54
1174.84
1173.44
1172.31
1171.43
1176.61
1174.97
1173.58
1172.45
1171.57
1176.51
1174.83
1173.44
1172.31
1171.43
1176.6
1174.96
1173.58
1172.45
1171.57
1176.49
1174.81
1173.42
1172.29
1171.41
1176.63
1174.96
1173.56
1172.42
1171.54
1176.52
1174.82
1173.41
1172.28
1171.39
1176.63
1174.95
1173.55
1172.41
1171.53
1176.52
1174.81
1173.41
1172.27
1171.39
1176.61
1174.93
1173.53
1172.39
1171.51
1176.5
1174.8
1173.39
1172.26
1171.38
1176.57
1174.87
1173.47
1172.33
1171.45
1176.47
1174.76
1173.36
1172.23
1171.34
1176.49
1174.79
1173.39
1172.25
1171.37
1176.08
1175.84
1176.05
1175.81
1175.97
1175.72
1175.85
1175.6
1175.65
1175.44
1175.16
1174.89
1175.38
1175.14
1174.97
1174.67
1174.8
1174.49
1173.16
1170.21
1167.81
1165.89
1164.48
1173.21
1170.23
1167.79
1165.86
1164.42
1173.13
1170.19
1167.79
1165.88
1164.47
1173.17
1170.2
1167.78
1165.85
1164.41
1173.07
1170.15
1167.77
1165.87
1164.45
1173.12
1170.17
1167.75
1165.83
1164.39
1172.98
1170.09
1167.72
1165.83
1164.43
1173.03
1170.11
1167.71
1165.8
1164.37
1172.84
1170
1167.66
1165.79
1164.39
1172.92
1170.04
1167.66
1165.76
1164.34
1172.52
1169.79
1167.51
1165.68
1164.3
1172.57
1169.81
1167.5
1165.65
1164.25
1172.68
1169.9
1167.59
1165.73
1164.34
1172.76
1169.94
1167.59
1165.71
1164.3
1172.37
1169.68
1167.43
1165.61
1164.25
1172.39
1169.68
1167.41
1165.58
1164.19
1172.22
1169.57
1167.35
1165.55
1164.19
1172.22
1169.55
1167.32
1165.51
1164.13
1181.13
1180.9
1181.15
1181.4
1181.9
1181.69
1181.9
1181.66
1181.66
1181.41
1181.66
1181.45
1176.26
1176.35
1176.56
1176.88
1177.3
1177.81
1176.24
1176.32
1176.52
1176.82
1177.22
1177.67
1176.07
1175.8
1176.18
1175.92
1176.41
1176.18
1176.77
1176.6
1177.25
1177.13
1177.8
1177.67
1178.36
1178.89
1179.35
1179.74
1180.03
1180.23
1178.16
1178.64
1179.07
1179.43
1179.71
1179.89
1176.58
1176.71
1176.68
1176.51
1176.18
1176.67
1176.8
1176.78
1176.6
1176.28
1176.88
1177.01
1176.99
1176.81
1176.49
1177.2
1177.33
1177.31
1177.14
1176.81
1177.63
1177.76
1177.74
1177.57
1177.25
1178.14
1178.28
1178.26
1178.1
1177.77
1176.56
1176.69
1176.66
1176.49
1176.16
1176.65
1176.78
1176.75
1176.58
1176.25
1176.85
1176.98
1176.95
1176.78
1176.46
1177.15
1177.28
1177.26
1177.09
1176.76
1177.54
1177.68
1177.66
1177.49
1177.16
1178
1178.14
1178.13
1177.96
1177.64
1176.4
1176.52
1176.5
1176.32
1176
1176.13
1176.25
1176.23
1176.05
1175.73
1176.5
1176.63
1176.6
1176.43
1176.1
1176.24
1176.37
1176.35
1176.17
1175.85
1176.73
1176.86
1176.84
1176.66
1176.34
1176.51
1176.64
1176.61
1176.44
1176.11
1177.1
1177.22
1177.2
1177.03
1176.71
1176.92
1177.05
1177.03
1176.86
1176.54
1177.58
1177.71
1177.69
1177.52
1177.19
1177.45
1177.59
1177.57
1177.4
1177.07
1178.13
1178.27
1178.25
1178.09
1177.76
1178
1178.14
1178.13
1177.96
1177.64
1178.7
1178.84
1178.83
1178.67
1178.35
1179.23
1179.38
1179.38
1179.22
1178.9
1179.7
1179.86
1179.87
1179.72
1179.41
1180.1
1180.28
1180.3
1180.16
1179.86
1180.41
1180.6
1180.64
1180.51
1180.21
1180.62
1180.81
1180.86
1180.73
1180.44
1178.5
1178.64
1178.63
1178.47
1178.15
1178.98
1179.13
1179.12
1178.97
1178.65
1179.42
1179.57
1179.58
1179.43
1179.12
1179.79
1179.96
1179.97
1179.83
1179.52
1180.08
1180.25
1180.27
1180.14
1179.83
1180.26
1180.44
1180.47
1180.33
1180.03
1176.28
1176.42
1176.67
1177.04
1177.52
1178.09
1176.26
1176.39
1176.64
1176.99
1177.43
1177.94
1176.1
1175.83
1176.25
1176
1176.53
1176.31
1176.94
1176.78
1177.48
1177.37
1178.1
1178
1178.7
1179.27
1179.75
1180.1
1180.29
1180.32
1178.47
1178.98
1179.4
1179.72
1179.91
1179.97
1176.6
1176.73
1176.71
1176.53
1176.2
1176.74
1176.87
1176.84
1176.67
1176.34
1177
1177.12
1177.1
1176.93
1176.6
1177.37
1177.5
1177.47
1177.3
1176.97
1177.85
1177.98
1177.96
1177.78
1177.46
1178.42
1178.55
1178.53
1178.36
1178.04
1176.58
1176.71
1176.69
1176.51
1176.18
1176.72
1176.85
1176.82
1176.65
1176.32
1176.96
1177.09
1177.07
1176.89
1176.57
1177.32
1177.44
1177.42
1177.25
1176.92
1177.76
1177.89
1177.87
1177.7
1177.37
1178.27
1178.4
1178.38
1178.21
1177.89
1176.42
1176.55
1176.52
1176.35
1176.02
1176.15
1176.28
1176.25
1176.08
1175.75
1176.57
1176.7
1176.67
1176.5
1176.17
1176.32
1176.45
1176.42
1176.25
1175.92
1176.85
1176.98
1176.96
1176.78
1176.46
1176.63
1176.76
1176.74
1176.56
1176.24
1177.27
1177.4
1177.37
1177.2
1176.87
1177.11
1177.23
1177.21
1177.04
1176.71
1177.8
1177.93
1177.91
1177.74
1177.41
1177.69
1177.82
1177.8
1177.63
1177.3
1178.43
1178.56
1178.54
1178.37
1178.04
1178.32
1178.46
1178.44
1178.27
1177.94
1179.03
1179.17
1179.15
1178.99
1178.66
1179.61
1179.75
1179.74
1179.58
1179.26
1180.09
1180.24
1180.24
1180.09
1179.77
1180.46
1180.62
1180.63
1180.48
1180.17
1180.66
1180.84
1180.87
1180.73
1180.43
1180.71
1180.9
1180.94
1180.81
1180.51
1178.8
1178.94
1178.93
1178.76
1178.44
1179.31
1179.45
1179.44
1179.28
1178.96
1179.75
1179.9
1179.89
1179.74
1179.42
1180.08
1180.23
1180.24
1180.09
1179.78
1180.27
1180.44
1180.46
1180.31
1180.01
1180.33
1180.51
1180.53
1180.39
1180.09
1180.61
1180.53
1179.33
1178.7
1178.72
1178.54
1179.11
1180.95
1180.8
1180.71
1180.38
1180.13
1180.32
1179.8
1179.78
1179.5
1180.93
1180.69
1180.16
1180.07
1180.38
1180.26
1179.88
1179.8
1179.3
1179.25
1179.77
1179.73
1180.76
1180.59
1180.83
1180.52
1180.4
1180.68
1179.93
1179.42
1180.06
1181.16
1181.4
1181.46
1181.37
1181.13
1180.96
1181.18
1181.24
1181.13
1180.85
1179.67
1179.81
1179.8
1179.63
1179.31
1179.03
1179.17
1179.15
1178.98
1178.66
1179.05
1179.19
1179.17
1179
1178.68
1178.87
1179.01
1178.99
1178.82
1178.5
1179.44
1179.58
1179.56
1179.4
1179.08
1181.44
1181.64
1181.69
1181.58
1181.34
1181.28
1181.47
1181.51
1181.39
1181.13
1181.09
1181.28
1181.31
1181.18
1180.88
1180.82
1181
1181.02
1180.89
1180.6
1180.49
1180.64
1180.65
1180.5
1180.18
1180.69
1180.86
1180.88
1180.73
1180.43
1180.14
1180.3
1180.29
1180.14
1179.82
1180.12
1180.28
1180.28
1180.13
1179.81
1179.84
1179.99
1179.99
1179.83
1179.51
1181.41
1181.62
1181.67
1181.56
1181.31
1181.06
1181.24
1181.27
1181.14
1180.83
1180.51
1180.66
1180.67
1180.51
1180.2
1180.42
1180.57
1180.57
1180.41
1180.1
1180.74
1180.9
1180.91
1180.76
1180.45
1180.61
1180.77
1180.78
1180.63
1180.31
1180.22
1180.37
1180.36
1180.21
1179.89
1180.14
1180.28
1180.28
1180.12
1179.8
1179.64
1179.78
1179.77
1179.61
1179.29
1179.58
1179.72
1179.71
1179.55
1179.23
1180.11
1180.26
1180.25
1180.09
1179.78
1180.07
1180.21
1180.21
1180.05
1179.73
1181.28
1181.5
1181.56
1181.46
1181.22
1181
1181.2
1181.24
1181.12
1180.83
1181.27
1181.47
1181.51
1181.4
1181.13
1180.89
1181.07
1181.1
1180.96
1180.66
1180.76
1180.93
1180.94
1180.8
1180.48
1181.07
1181.25
1181.28
1181.15
1180.85
1180.27
1180.42
1180.42
1180.26
1179.94
1179.75
1179.89
1179.88
1179.72
1179.4
1180.41
1180.56
1180.56
1180.4
1180.09
1179.88
1180.2
1180.35
1180.34
1180.18
1179.82
1181.05
1181.02
1181.42
1181.44
1180.99
1180.94
1181.39
1181.35
1180.62
1180.16
1180.61
1180.2
1180.56
1180.57
1180.27
1181.07
1181.04
1181.44
1181.46
1181
1180.95
1181.41
1181.36
1180.61
1180.12
1180.6
1180.17
1180.54
1180.56
1180.24
1181.07
1181.03
1181.45
1181.47
1180.99
1180.93
1181.4
1181.34
1180.59
1179.99
1180.57
1180.05
1180.51
1180.53
1180.14
1180.96
1180.93
1181.35
1181.38
1180.88
1180.8
1181.3
1181.23
1180.45
1179.81
1180.44
1179.88
1180.38
1180.4
1179.98
1180.77
1180.73
1181.15
1181.18
1180.68
1180.59
1181.1
1181.03
1180.25
1179.65
1180.24
1179.7
1180.18
1180.18
1179.79
1180.42
1180.38
1180.8
1180.83
1180.33
1180.25
1180.74
1180.67
1179.93
1179.38
1179.92
1179.43
1179.87
1179.88
1179.52
1181.98
1181.98
1181.74
1181.75
1181.96
1181.94
1181.72
1181.69
1182.13
1182.22
1182.12
1182.21
1182.11
1182.08
1182.17
1182.01
1182
1181.76
1181.78
1181.98
1181.95
1181.74
1181.7
1182.16
1182.23
1182.15
1182.21
1182.12
1182.08
1182.16
1182.02
1182.01
1181.77
1181.79
1181.97
1181.93
1181.73
1181.68
1182.15
1182.16
1182.13
1182.14
1182.09
1182.04
1182.1
1181.93
1181.91
1181.68
1181.7
1181.86
1181.81
1181.63
1181.57
1182.04
1182
1182.01
1181.98
1181.95
1181.9
1181.94
1181.73
1181.71
1181.48
1181.5
1181.65
1181.58
1181.43
1181.37
1181.82
1181.76
1181.79
1181.74
1181.73
1181.66
1181.7
1181.36
1181.34
1181.11
1181.14
1181.28
1181.22
1181.06
1181
1181.46
1181.43
1181.42
1181.41
1181.37
1181.31
1181.37
1178.11
1178.2
1178.37
1178.51
1178.69
1178.84
1179.09
1179.21
1178.95
1179.1
1178.64
1178.78
1178.39
1178.52
1178.17
1178.26
1178.84
1179.04
1179.09
1179.36
1179.33
1179.58
1179.57
1179.89
1177.87
1177.44
1177.96
1177.56
1178.12
1177.7
1178.27
1177.87
1178.66
1178.38
1178.92
1178.56
1178.01
1178.3
1179.39
1179.83
1179.66
1179.99
1179.84
1180.23
1180.16
1180.45
1178.95
1179.41
1179.23
1179.58
1178.58
1179.03
1176.94
1176.6
1177.14
1176.77
1177.2
1176.78
1177.45
1177.05
1177.57
1177.02
1177.99
1177.46
1178.32
1177.79
1178.71
1178.17
1179.03
1179.12
1179.42
1179.47
1179.69
1179.8
1180.02
1180.12
1178.83
1178.77
1178.39
1178.4
1179.75
1179.76
1180.05
1180
1180.31
1180.38
1180.58
1180.61
1179.2
1179.07
1179.52
1179.31
1178.23
1177.6
1178.04
1177.35
1177.77
1177.13
1177.67
1176.95
1178.62
1178
1178.35
1177.66
1178.97
1178.35
1178.59
1177.92
1176.17
1175.47
1176.05
1175.38
1176.42
1175.75
1176.2
1175.55
1176.8
1176.28
1176.43
1175.89
1178.49
1179.26
1177.77
1177.23
1176.6
1179.1
1178.28
1177.41
1176.84
1176.18
1179.38
1178.66
1177.95
1177.26
1176.54
1174.82
1174.45
1174.53
1174.22
1175.16
1174.73
1174.77
1174.42
1175.73
1175.25
1175.16
1174.75
1178.85
1178.43
1177.95
1177.41
1177.11
1176.56
1176.45
1175.91
1175.54
1175.03
1179.19
1178.85
1178.38
1177.83
1177.61
1177
1176.82
1176.18
1175.79
1175.13
1178.87
1178.27
1179.28
1178.75
1179.67
1179.42
1180.05
1179.87
1178.45
1177.78
1178.04
1177.33
1179.63
1179.1
1179.86
1179.35
1180.35
1180.17
1180.57
1180.41
1178.81
1178.13
1179.04
1178.37
1177.47
1176.68
1176.23
1175.3
1177.14
1176.31
1176
1175.08
1177.77
1177.01
1176.44
1175.53
1178.05
1177.28
1176.73
1175.86
1174.22
1173.93
1173.52
1174.21
1173.99
1173.6
1174.44
1174.12
1173.68
1174.38
1174.15
1173.73
1174.87
1174.49
1174.03
1174.63
1174.34
1173.89
1177.9
1177.31
1176.67
1176.79
1176.24
1175.65
1175.98
1175.48
1174.93
1175.42
1174.97
1174.43
1174.83
1174.47
1173.94
1178.35
1177.68
1176.96
1177.08
1176.36
1175.62
1176.22
1175.56
1174.87
1175.52
1174.96
1174.32
1174.82
1174.4
1173.79
1180.18
1180.39
1180.37
1180.63
1179.8
1180.05
1180.02
1180.33
1180.12
1180.43
1180.17
1180.45
1180.27
1180.54
1180.36
1180.61
1180.67
1180.49
1180.8
1180.58
1180.65
1180.8
1180.84
1181.08
1180.57
1180.83
1180.8
1181.04
1180.98
1181.2
1180.9
1181.13
1180.74
1181
1180.68
1180.91
1180.82
1181.08
1180.82
1181.03
1180.92
1181.18
1181.04
1181.25
1181.13
1181.29
1181.32
1181.42
1180.62
1180.78
1180.87
1181.04
1180.22
1180.36
1180.51
1180.65
1181.1
1181.3
1180.87
1181.07
1181.1
1181.25
1181.32
1181.44
1180.77
1180.89
1181.01
1181.1
1181.3
1181.49
1181.51
1181.66
1181.28
1181.43
1181.44
1181.49
1181.09
1181.29
1181.24
1181.33
1181.45
1181.56
1181.61
1181.63
1181.63
1181.7
1181.76
1181.75
1180.66
1180.45
1180.94
1180.74
1180.7
1180.48
1180.98
1180.78
1180.76
1180.56
1181.04
1180.86
1180.39
1179.91
1180.68
1180.91
1181.12
1179.77
1180.24
1180.49
1180.72
1180.96
1180.04
1180.51
1180.84
1181.04
1181.16
1180.13
1179.7
1180.43
1180.02
1180.19
1179.77
1180.5
1180.11
1180.3
1179.91
1180.62
1180.26
1179.57
1179.21
1180.08
1179.72
1180.35
1179.99
1180.56
1180.2
1180.8
1180.46
1179.9
1179.67
1180.39
1180.16
1180.71
1180.46
1180.9
1180.6
1181.01
1180.66
1180.77
1180.64
1181.03
1180.95
1180.33
1180.21
1180.64
1180.59
1181.26
1181.11
1181.03
1180.84
1181.23
1181.19
1181.41
1181.38
1180.87
1180.86
1181.08
1181.07
1181.44
1181.33
1181.6
1181.5
1181.37
1181.15
1181.35
1181.06
1181.16
1180.9
1181.19
1180.87
1181.53
1181.35
1181.48
1181.22
1181.67
1181.5
1181.6
1181.37
1179.13
1178.55
1177.98
1179.33
1178.68
1178.12
1179.23
1178.64
1178.07
1179.45
1178.79
1178.21
1179.4
1178.82
1178.23
1179.63
1178.94
1178.32
1178.73
1178.14
1177.51
1179.24
1178.65
1178.01
1179.51
1178.9
1178.25
1179.7
1179.09
1178.47
1179.83
1179.1
1178.42
1179.27
1178.63
1177.91
1179.75
1179.11
1178.4
1180.01
1179.34
1178.61
1180.1
1179.41
1178.67
1180.01
1179.25
1178.5
1181
1180.6
1179.82
1178.49
1180.89
1180.47
1179.66
1178.32
1181.05
1180.64
1179.86
1178.52
1180.98
1180.55
1179.73
1178.39
1181.12
1180.69
1179.94
1178.64
1181.15
1180.69
1179.89
1178.56
1181.13
1180.63
1179.78
1178.41
1181.2
1180.66
1179.77
1178.4
1181.27
1180.79
1180.01
1178.69
1181.25
1180.75
1180.02
1178.83
1181.17
1180.72
1180
1178.78
1181.14
1180.66
1179.98
1178.86
1181.36
1180.84
1180
1178.64
1181.36
1180.82
1180.05
1178.84
1181.45
1180.89
1180.03
1178.67
1181.44
1180.88
1180.1
1178.89
1180.98
1180.61
1179.89
1178.64
1180.82
1180.49
1179.87
1178.77
1180.99
1180.62
1179.91
1178.67
1180.83
1180.49
1179.87
1178.78
1181.02
1180.63
1179.94
1178.73
1180.87
1180.5
1179.88
1178.8
1181.03
1180.61
1179.95
1178.81
1180.9
1180.51
1179.89
1178.84
1181.02
1180.58
1179.94
1178.89
1180.58
1180.28
1179.71
1178.91
1180.31
1180.03
1179.44
1178.7
1180.61
1180.3
1179.72
1178.93
1180.34
1180.04
1179.45
1178.7
1180.67
1180.33
1179.74
1178.94
1180.4
1180.07
1179.46
1178.72
1180.76
1180.37
1179.77
1178.97
1180.48
1180.11
1179.49
1178.73
1180.87
1180.43
1179.81
1179
1180.58
1180.16
1179.51
1178.75
1181.06
1180.54
1179.86
1179.03
1180.8
1180.29
1179.59
1178.8
1180.97
1180.49
1179.84
1179.01
1180.69
1180.22
1179.55
1178.78
1181.15
1180.6
1179.89
1179.04
1180.9
1180.35
1179.63
1178.83
1181.23
1180.65
1179.92
1179.06
1180.99
1180.41
1179.67
1178.86
1176.51
1174.92
1173.55
1172.43
1171.56
1176.41
1174.83
1173.47
1172.35
1171.47
1176.52
1174.92
1173.56
1172.44
1171.56
1176.43
1174.84
1173.48
1172.36
1171.48
1176.54
1174.93
1173.56
1172.44
1171.56
1176.5
1174.91
1173.54
1172.42
1171.54
1176.46
1174.86
1173.49
1172.37
1171.49
1176.48
1174.88
1173.51
1172.38
1171.5
1176.56
1174.94
1173.57
1172.44
1171.57
1176.48
1174.82
1173.44
1172.32
1171.44
1176.54
1174.91
1173.54
1172.41
1171.54
1176.45
1174.79
1173.41
1172.29
1171.41
1176.56
1174.94
1173.56
1172.44
1171.56
1176.47
1174.8
1173.42
1172.3
1171.42
1176.58
1174.95
1173.57
1172.45
1171.57
1176.47
1174.8
1173.42
1172.29
1171.41
1176.5
1174.88
1173.51
1172.39
1171.51
1176.38
1174.74
1173.36
1172.24
1171.37
1176.5
1174.87
1173.5
1172.38
1171.51
1176.38
1174.73
1173.36
1172.24
1171.36
1176.5
1174.86
1173.49
1172.37
1171.49
1176.38
1174.73
1173.35
1172.23
1171.35
1176.46
1174.81
1173.43
1172.31
1171.43
1176.36
1174.7
1173.32
1172.2
1171.32
1176.39
1174.73
1173.35
1172.23
1171.35
1173.13
1172.93
1173.23
1173.02
1173.41
1173.17
1173.64
1173.36
1173.87
1173.55
1174.25
1173.89
1174.06
1173.7
1174.44
1174.09
1174.62
1174.3
1171.08
1168.8
1166.82
1165.16
1163.86
1171.1
1168.8
1166.8
1165.13
1163.81
1171.12
1168.83
1166.83
1165.17
1163.87
1171.14
1168.82
1166.81
1165.13
1163.81
1171.21
1168.87
1166.86
1165.19
1163.89
1171.22
1168.87
1166.84
1165.15
1163.83
1171.33
1168.94
1166.9
1165.22
1163.91
1171.33
1168.93
1166.87
1165.17
1163.85
1171.47
1169.03
1166.96
1165.26
1163.94
1171.45
1169
1166.92
1165.21
1163.87
1171.77
1169.23
1167.1
1165.36
1164.03
1171.73
1169.19
1167.05
1165.3
1163.96
1171.62
1169.13
1167.03
1165.31
1163.98
1171.58
1169.09