/*--------------------------------*- C++ -*----------------------------------*\
  =========                 |
  \\      /  F ield         | OpenFOAM: The Open Source CFD Toolbox
   \\    /   O peration     | Website:  https://openfoam.org
    \\  /    A nd           | Version:  12
     \\/     M anipulation  |
\*---------------------------------------------------------------------------*/
FoamFile
{
    format      ascii;
    class       volScalarField;
    location    "235";
    object      T;
}
// * * * * * * * * * * * * * * * * * * * * * * * * * * * * * * * * * * * * * //

dimensions      [];

internalField   nonuniform List<scalar> 
4480
(
7.5333e-10
1.11698e-07
0.000144517
0.00585336
0.0347081
0.090002
0.160131
0.233696
0.303696
0.366822
0.422017
0.469397
0.509598
0.543438
0.571739
0.595254
0.614643
0.630473
0.643214
0.653263
0.660952
0.666555
0.670299
0.672371
0.67293
0.672108
0.670015
0.66723
0.664409
0.661538
0.658603
0.655587
0.652475
0.649251
0.645899
0.642404
0.638748
0.634914
0.630881
0.626632
0.622149
0.617404
0.612377
0.607047
0.601386
0.595366
0.588959
0.58214
0.574872
0.56712
0.558854
0.550037
0.540622
0.53057
0.519832
0.508354
0.496083
0.482951
0.468879
0.453787
0.437572
0.420131
0.401351
0.381131
0.359386
0.336089
0.311278
0.285107
0.257843
0.229896
0.20178
0.174101
0.147489
0.122545
0.0997769
0.0795561
0.0620895
0.047417
0.0354294
0.0259006
0.0185282
0.012973
0.00889347
0.00600848
0.00402232
0.00268438
0.0017994
0.00122184
0.00084759
0.000604936
0.000446142
0.000340406
0.000268346
0.000218001
0.000182059
0.000156042
0.000137179
0.00012372
0.000114556
0.000108995
0.000106657
0.000107426
0.000111441
0.000119132
0.000131292
0.000149203
0.000174856
0.000211288
0.000263132
0.000337489
0.00044531
0.00060361
0.000838965
0.00119305
0.00173122
0.00255574
0.00382546
0.00578487
0.00880699
0.0134701
0.020745
0.0324451
0.0520258
0.0873791
0.166357
0.33449
0.513958
0.720102
0.672066
0.336851
0.16281
0.0542644
0.0158837
0.00453698
0.00113871
0.000233215
3.56466e-05
3.37971e-06
1.49423e-07
1.64412e-09
4.64456e-10
8.80832e-06
0.00254346
0.0396432
0.134917
0.256766
0.375094
0.476751
0.55929
0.624723
0.676232
0.71685
0.749061
0.774768
0.795391
0.811995
0.825372
0.836118
0.844689
0.851439
0.856645
0.860517
0.863228
0.86491
0.865674
0.8656
0.864758
0.863025
0.860407
0.856985
0.852839
0.848046
0.84268
0.836811
0.830499
0.823806
0.816781
0.80947
0.801906
0.794125
0.786152
0.778006
0.769696
0.761235
0.752625
0.743863
0.734945
0.725861
0.716596
0.707137
0.697462
0.687554
0.677384
0.666927
0.656156
0.645037
0.63354
0.621624
0.609248
0.596372
0.582938
0.568897
0.55418
0.538725
0.52246
0.505316
0.487221
0.468117
0.447968
0.426753
0.404477
0.381184
0.356957
0.331918
0.306234
0.280124
0.253845
0.227697
0.20201
0.177126
0.15338
0.131089
0.110514
0.0919792
0.075637
0.0615
0.0494996
0.0394985
0.0313082
0.0247108
0.0194762
0.0153787
0.0122086
0.00977968
0.00793311
0.00653778
0.00548905
0.00470546
0.00412545
0.00370371
0.00340791
0.00321606
0.00311461
0.00309698
0.00316307
0.00331918
0.00357889
0.00396466
0.00451074
0.00526723
0.00630653
0.00773219
0.00969196
0.0123954
0.0161383
0.0213356
0.0285647
0.0386252
0.0526231
0.0721132
0.0993579
0.137728
0.192062
0.268867
0.375421
0.510989
0.656203
0.785835
0.739641
0.451591
0.240875
0.111765
0.0454575
0.0161425
0.00486797
0.00118438
0.000215697
2.51852e-05
1.46346e-06
2.59096e-08
1.48014e-07
0.000191488
0.0170464
0.122863
0.285939
0.441408
0.56466
0.655572
0.721291
0.769122
0.804644
0.831695
0.852772
0.869498
0.882933
0.893801
0.902612
0.909739
0.91547
0.920025
0.923583
0.926281
0.928233
0.929531
0.930244
0.930429
0.93013
0.929285
0.927852
0.925857
0.923325
0.920268
0.916707
0.912653
0.908131
0.903157
0.897757
0.891956
0.885779
0.879251
0.872401
0.865253
0.857832
0.85016
0.842254
0.834137
0.825819
0.817313
0.808626
0.799767
0.790737
0.781536
0.772158
0.762601
0.752859
0.742917
0.732767
0.722393
0.711778
0.700903
0.689745
0.678282
0.666481
0.654315
0.641745
0.628732
0.615233
0.601203
0.58659
0.571351
0.555426
0.538777
0.521353
0.503115
0.484029
0.46408
0.443261
0.421585
0.399094
0.37586
0.351976
0.327584
0.302847
0.278037
0.253472
0.229433
0.206195
0.184019
0.163136
0.143737
0.125963
0.1099
0.0955789
0.0829812
0.0720451
0.0626743
0.0547482
0.0481332
0.0426916
0.0382898
0.034805
0.0321304
0.0301789
0.0288846
0.0282064
0.0281283
0.0286629
0.0298548
0.0317852
0.0345792
0.0384156
0.0435399
0.0502803
0.0590668
0.0704541
0.0851455
0.10402
0.128153
0.158847
0.197641
0.24631
0.306712
0.380334
0.467371
0.565435
0.667913
0.763242
0.835113
0.801436
0.566291
0.346284
0.186106
0.0874797
0.0354758
0.0121292
0.00333806
0.000693333
9.47268e-05
6.7934e-06
1.62061e-07
5.46884e-06
0.00185063
0.0632797
0.253953
0.453073
0.602541
0.702883
0.768794
0.813128
0.844424
0.867774
0.886038
0.900779
0.912864
0.922823
0.931022
0.937744
0.943212
0.947619
0.951127
0.953871
0.955966
0.957504
0.958565
0.959205
0.95947
0.959399
0.958966
0.95815
0.956966
0.955419
0.95351
0.951241
0.948608
0.945607
0.942241
0.938509
0.93441
0.929956
0.925151
0.920007
0.914537
0.908754
0.902678
0.896322
0.889706
0.882846
0.875759
0.868458
0.860963
0.853283
0.845428
0.837411
0.829237
0.820914
0.812446
0.803834
0.795076
0.786177
0.777128
0.767929
0.758567
0.749038
0.73933
0.729425
0.71931
0.708967
0.698368
0.687495
0.676311
0.664789
0.652896
0.640589
0.627831
0.614573
0.600772
0.586382
0.571358
0.55565
0.539217
0.522027
0.504057
0.485293
0.465717
0.445422
0.42448
0.402998
0.381113
0.358988
0.336812
0.314792
0.293148
0.272099
0.251856
0.232621
0.214565
0.197839
0.182556
0.168803
0.156635
0.146081
0.137151
0.129843
0.124152
0.120077
0.117632
0.116858
0.117826
0.120651
0.125502
0.132608
0.142271
0.15487
0.170864
0.190798
0.215287
0.245008
0.280654
0.322886
0.372234
0.428953
0.49277
0.562535
0.635829
0.708753
0.775943
0.830635
0.864219
0.841132
0.664466
0.454187
0.271944
0.141664
0.0633031
0.0237687
0.00717235
0.00164264
0.000251411
2.08856e-05
6.09927e-07
8.02258e-05
0.0101421
0.157518
0.411366
0.603767
0.721554
0.791043
0.833793
0.862401
0.883552
0.90052
0.914748
0.926812
0.936982
0.945451
0.952409
0.958055
0.962579
0.966155
0.968944
0.971084
0.972689
0.973856
0.974659
0.975158
0.975396
0.975404
0.975175
0.974674
0.973913
0.972894
0.97162
0.970089
0.968296
0.966237
0.963904
0.961289
0.958389
0.955198
0.951716
0.947938
0.943873
0.939519
0.934887
0.929983
0.92482
0.919411
0.913767
0.907902
0.901832
0.895571
0.889132
0.882531
0.875779
0.86889
0.861876
0.854744
0.847501
0.840159
0.83272
0.82519
0.817572
0.809869
0.80208
0.794197
0.786225
0.778153
0.769973
0.761678
0.753253
0.744684
0.735952
0.727042
0.717927
0.708584
0.698982
0.689094
0.678882
0.668308
0.65734
0.645934
0.634049
0.621648
0.608651
0.595049
0.580819
0.565947
0.550435
0.534307
0.517604
0.500391
0.482758
0.464822
0.446719
0.42861
0.410676
0.393112
0.376122
0.359914
0.344698
0.330676
0.318046
0.306997
0.297707
0.290348
0.285091
0.282105
0.281568
0.283671
0.288627
0.296668
0.308055
0.323067
0.342002
0.365152
0.392779
0.425086
0.462157
0.503901
0.54996
0.599619
0.651699
0.704453
0.755543
0.802109
0.84089
0.868129
0.878769
0.859199
0.736705
0.549939
0.359888
0.204274
0.099003
0.0401973
0.0130788
0.00323681
0.000539756
4.98429e-05
1.67843e-06
0.000651107
0.0366679
0.296466
0.565017
0.718379
0.798093
0.841951
0.869311
0.889152
0.90553
0.920006
0.932847
0.943947
0.953259
0.960862
0.966939
0.971703
0.975371
0.978147
0.980204
0.981697
0.982753
0.983477
0.983946
0.984221
0.984345
0.984343
0.984221
0.983909
0.983417
0.982746
0.981893
0.980855
0.979627
0.978201
0.976569
0.974725
0.972658
0.970363
0.967835
0.965066
0.962055
0.958799
0.955302
0.951566
0.947594
0.943396
0.938977
0.934353
0.929531
0.924525
0.919349
0.914017
0.90854
0.902934
0.897213
0.891389
0.885472
0.879473
0.873406
0.867282
0.8611
0.854875
0.848607
0.842303
0.835967
0.829595
0.823191
0.816754
0.810275
0.803753
0.797179
0.790548
0.783847
0.777061
0.770182
0.763189
0.756069
0.748801
0.741361
0.733729
0.725884
0.717798
0.709413
0.700703
0.691647
0.682216
0.672385
0.662137
0.651462
0.640362
0.628848
0.616947
0.604705
0.592189
0.579483
0.566698
0.553967
0.541438
0.529288
0.517715
0.506923
0.497141
0.488603
0.481546
0.476221
0.472869
0.471741
0.473075
0.477103
0.48405
0.494113
0.507468
0.524245
0.544515
0.568263
0.595368
0.62556
0.658397
0.693217
0.729125
0.764961
0.799319
0.830575
0.856948
0.876487
0.886853
0.884473
0.862169
0.781824
0.625111
0.440819
0.269713
0.140463
0.0611326
0.021244
0.00561596
0.00100409
0.000100653
3.77834e-06
0.0034876
0.0968984
0.456133
0.688993
0.792978
0.842237
0.869974
0.889153
0.905052
0.919784
0.933715
0.946267
0.956925
0.965562
0.972325
0.977477
0.981291
0.984027
0.98591
0.987143
0.987893
0.988303
0.988487
0.988536
0.988511
0.988452
0.98838
0.988305
0.988127
0.987847
0.987459
0.986955
0.986325
0.985561
0.984652
0.983584
0.982351
0.980941
0.979345
0.977559
0.975573
0.973382
0.970985
0.96838
0.965568
0.962547
0.959324
0.955904
0.952297
0.948508
0.944549
0.940434
0.936171
0.931773
0.927257
0.922634
0.917915
0.913118
0.908253
0.90333
0.898362
0.893359
0.88833
0.883281
0.878225
0.873163
0.868098
0.863037
0.857979
0.852928
0.847879
0.842836
0.837788
0.83274
0.827682
0.822608
0.817509
0.812379
0.807211
0.801996
0.796715
0.791366
0.785937
0.780381
0.774695
0.768862
0.762865
0.756689
0.750321
0.743749
0.736964
0.729966
0.72276
0.715352
0.707772
0.70005
0.69224
0.684404
0.676627
0.669014
0.661683
0.654781
0.648466
0.642916
0.638325
0.634896
0.63284
0.63237
0.633691
0.637002
0.642469
0.650239
0.660407
0.673017
0.688037
0.70535
0.724738
0.745868
0.768272
0.79135
0.814362
0.836439
0.856602
0.873784
0.886824
0.894408
0.894795
0.885052
0.859313
0.802009
0.677325
0.508069
0.332006
0.18447
0.0855471
0.0315687
0.00885613
0.00168334
0.000180992
7.45105e-06
0.013844
0.200968
0.603687
0.772144
0.835736
0.866497
0.88589
0.901346
0.915844
0.930431
0.944647
0.957199
0.967392
0.97522
0.981001
0.985109
0.987876
0.989583
0.990477
0.990774
0.990667
0.990319
0.989864
0.989399
0.988995
0.988692
0.988508
0.988441
0.988368
0.988278
0.988156
0.987985
0.987748
0.987427
0.987004
0.986463
0.985788
0.984969
0.983994
0.982851
0.981537
0.980043
0.978364
0.9765
0.974448
0.972214
0.969796
0.967198
0.964428
0.961495
0.958404
0.955165
0.951792
0.948296
0.944687
0.940978
0.937185
0.933317
0.929388
0.925411
0.921399
0.917355
0.913299
0.909234
0.905167
0.90111
0.897066
0.893042
0.889036
0.885056
0.881104
0.87718
0.873279
0.869407
0.865555
0.861725
0.857914
0.854116
0.850331
0.84655
0.842768
0.838988
0.835197
0.831383
0.827522
0.823618
0.819664
0.815651
0.811578
0.807441
0.803232
0.798955
0.794614
0.79021
0.785758
0.781279
0.776795
0.772343
0.767965
0.763722
0.759678
0.755923
0.752545
0.749661
0.74739
0.745861
0.745218
0.745595
0.747137
0.749966
0.754199
0.759911
0.767153
0.775927
0.786172
0.797762
0.810498
0.824093
0.838176
0.852292
0.865893
0.878371
0.889039
0.897156
0.901885
0.902207
0.896639
0.882573
0.854931
0.804145
0.708931
0.558484
0.386208
0.227448
0.111849
0.0436643
0.0129532
0.00260771
0.00029934
1.34385e-05
0.0443779
0.343287
0.712161
0.819394
0.858959
0.880411
0.895847
0.909738
0.924011
0.939137
0.953945
0.966439
0.975945
0.982765
0.987436
0.990423
0.992069
0.992655
0.992441
0.991665
0.990554
0.989306
0.988077
0.98699
0.986122
0.985518
0.985186
0.985108
0.98513
0.985235
0.985392
0.985574
0.98575
0.985895
0.98598
0.985978
0.985871
0.985639
0.985266
0.984745
0.98406
0.983209
0.982185
0.980985
0.979608
0.978057
0.976331
0.974439
0.972385
0.970174
0.967816
0.965319
0.962695
0.959953
0.957104
0.954164
0.951138
0.948046
0.944895
0.941699
0.938471
0.935218
0.93195
0.928679
0.925413
0.922158
0.918922
0.915708
0.912522
0.909369
0.90625
0.903165
0.900117
0.897103
0.894129
0.891189
0.888284
0.885412
0.88257
0.879758
0.876969
0.874209
0.871472
0.868756
0.866029
0.863305
0.860582
0.857858
0.855133
0.852404
0.849679
0.846952
0.844237
0.841533
0.838854
0.836211
0.833622
0.831103
0.828691
0.826409
0.824306
0.822421
0.820814
0.819547
0.818691
0.818319
0.818516
0.819356
0.820921
0.82328
0.826495
0.830597
0.835605
0.841495
0.848205
0.855622
0.863589
0.871879
0.880216
0.888261
0.895617
0.901842
0.906429
0.908821
0.908359
0.904169
0.894896
0.878105
0.849229
0.800233
0.719633
0.592264
0.429348
0.266266
0.138225
0.056929
0.0178278
0.00379817
0.000465397
2.27931e-05
0.115135
0.501339
0.771849
0.843987
0.872318
0.889235
0.902692
0.915987
0.930577
0.946579
0.962077
0.97429
0.982846
0.988506
0.992018
0.99385
0.994308
0.993652
0.992157
0.990111
0.98779
0.985446
0.983278
0.981435
0.980009
0.979043
0.978539
0.978438
0.97857
0.978897
0.979377
0.979966
0.980615
0.981285
0.981933
0.982527
0.983034
0.98343
0.983693
0.983809
0.983766
0.983553
0.983165
0.9826
0.981859
0.980945
0.979855
0.978599
0.977181
0.97561
0.97389
0.972036
0.970056
0.96796
0.965761
0.963472
0.961098
0.958659
0.956162
0.953617
0.951041
0.94844
0.945824
0.943203
0.940586
0.937979
0.935389
0.932824
0.930283
0.927775
0.925298
0.922861
0.920459
0.918098
0.915773
0.913487
0.911242
0.90903
0.906859
0.90472
0.902618
0.90055
0.898514
0.896514
0.894521
0.89255
0.890598
0.888664
0.88675
0.884862
0.882998
0.881164
0.879365
0.877611
0.875904
0.874258
0.872681
0.871192
0.869809
0.868548
0.867439
0.866505
0.86578
0.865302
0.865105
0.865233
0.865728
0.866628
0.867979
0.869808
0.872139
0.874982
0.878326
0.882139
0.886357
0.890884
0.895589
0.900296
0.904792
0.908816
0.912072
0.914214
0.914855
0.913543
0.909724
0.902594
0.890864
0.872188
0.842338
0.794293
0.718581
0.60718
0.460566
0.29879
0.163002
0.0706692
0.0233459
0.00526861
0.000690743
3.70376e-05
0.211649
0.622975
0.810223
0.858356
0.880839
0.895282
0.907639
0.920791
0.93598
0.953054
0.969238
0.980885
0.988265
0.99271
0.99508
0.995743
0.994908
0.992816
0.989784
0.986184
0.982377
0.978687
0.975374
0.972621
0.970533
0.969155
0.968472
0.968355
0.968632
0.969242
0.970123
0.971206
0.972425
0.973717
0.975027
0.976305
0.977509
0.978606
0.979571
0.980378
0.981016
0.981474
0.981743
0.981823
0.981713
0.981417
0.980938
0.980283
0.979459
0.978476
0.97734
0.976065
0.974661
0.973137
0.971505
0.969779
0.96797
0.96609
0.964148
0.96216
0.960133
0.958078
0.956006
0.953925
0.951842
0.949766
0.947703
0.945655
0.943635
0.941637
0.939672
0.937739
0.935839
0.933975
0.932144
0.930353
0.928596
0.926875
0.925189
0.923535
0.921917
0.920337
0.918785
0.91727
0.915775
0.914298
0.912844
0.911415
0.910014
0.908638
0.907297
0.905988
0.904718
0.903496
0.902322
0.901211
0.900168
0.899203
0.898327
0.897559
0.89691
0.896396
0.896034
0.895851
0.895858
0.896086
0.896546
0.897262
0.898249
0.899515
0.901064
0.902884
0.904951
0.907228
0.909652
0.912133
0.914564
0.916796
0.918658
0.919946
0.92042
0.919803
0.917779
0.913967
0.907866
0.898712
0.885223
0.865099
0.834333
0.786616
0.713861
0.609392
0.474392
0.324048
0.18492
0.0842265
0.0293492
0.00702945
0.000989754
5.83985e-05
0.327533
0.703563
0.834099
0.869683
0.887104
0.899533
0.911245
0.924485
0.940429
0.95869
0.975536
0.986308
0.992365
0.995643
0.996938
0.996384
0.994061
0.990225
0.985292
0.979761
0.974119
0.968791
0.964103
0.960278
0.957433
0.955607
0.954763
0.954662
0.955148
0.956138
0.957535
0.959242
0.961164
0.963215
0.965317
0.967407
0.969426
0.971331
0.973086
0.974665
0.976049
0.97723
0.9782
0.978953
0.979496
0.979829
0.979959
0.979896
0.979648
0.979225
0.978639
0.977902
0.977026
0.976022
0.974903
0.973682
0.972372
0.970983
0.969529
0.968019
0.966465
0.964878
0.963266
0.961637
0.960004
0.958368
0.956738
0.95512
0.953517
0.951936
0.950377
0.948845
0.947339
0.945863
0.944417
0.943002
0.941619
0.940263
0.938938
0.937643
0.936379
0.935146
0.933939
0.932764
0.931605
0.930469
0.929349
0.928252
0.927179
0.926128
0.925105
0.924114
0.923155
0.922234
0.921357
0.92053
0.919757
0.919047
0.918407
0.917845
0.91737
0.916995
0.916729
0.91658
0.916559
0.916675
0.916934
0.917345
0.917908
0.918617
0.919461
0.920424
0.921471
0.922559
0.923624
0.924592
0.925359
0.925805
0.92578
0.925113
0.92361
0.921038
0.91713
0.911548
0.903819
0.89318
0.878332
0.856975
0.825251
0.777382
0.706295
0.606386
0.478648
0.335624
0.200536
0.0970689
0.0356822
0.0090919
0.00138072
9.01562e-05
0.449166
0.756292
0.850135
0.877752
0.892191
0.902792
0.913809
0.927244
0.944014
0.963541
0.981021
0.990632
0.995324
0.997573
0.997859
0.995956
0.991826
0.985809
0.978499
0.970578
0.962701
0.95541
0.949108
0.944057
0.940383
0.938106
0.937156
0.937131
0.937934
0.939438
0.941508
0.944008
0.946808
0.94979
0.952851
0.955904
0.958879
0.961717
0.964375
0.966824
0.969043
0.971016
0.97274
0.974214
0.97544
0.976425
0.977181
0.977715
0.978038
0.978168
0.978115
0.977895
0.977516
0.976999
0.976355
0.975596
0.974738
0.97379
0.97277
0.971682
0.970545
0.969363
0.968149
0.966912
0.965657
0.964395
0.963128
0.961866
0.960612
0.959369
0.958142
0.956933
0.955744
0.954575
0.953431
0.952307
0.951209
0.950133
0.949083
0.948056
0.947051
0.946068
0.945112
0.944176
0.943257
0.942351
0.941461
0.940584
0.939725
0.938881
0.938058
0.937259
0.936481
0.935729
0.935011
0.934326
0.933678
0.933076
0.932519
0.932015
0.931571
0.93119
0.930875
0.930635
0.930468
0.930378
0.930363
0.930424
0.930548
0.930728
0.930944
0.931169
0.931367
0.931496
0.931489
0.931276
0.930765
0.92985
0.928404
0.926278
0.923304
0.919292
0.913998
0.90711
0.89816
0.886363
0.870376
0.847872
0.815102
0.766694
0.69638
0.599449
0.477006
0.340016
0.208854
0.10535
0.0409829
0.0112426
0.00187562
0.000137164
0.537724
0.807078
0.861394
0.883521
0.8958
0.905526
0.915646
0.929165
0.946778
0.967626
0.985745
0.993951
0.997341
0.99876
0.998053
0.994545
0.988143
0.979377
0.969114
0.958287
0.947743
0.938158
0.93002
0.923621
0.919084
0.916399
0.915446
0.915605
0.916872
0.919071
0.922013
0.925514
0.929398
0.93351
0.937717
0.941909
0.945992
0.949901
0.953587
0.95701
0.960151
0.962995
0.965539
0.967783
0.969735
0.971404
0.972804
0.973949
0.974853
0.975533
0.976005
0.976287
0.976393
0.976339
0.976142
0.975815
0.975376
0.974835
0.974207
0.973503
0.972733
0.971912
0.971048
0.970151
0.969225
0.968283
0.967328
0.966366
0.965402
0.964442
0.963489
0.962543
0.961607
0.960688
0.959782
0.958888
0.958014
0.957153
0.956311
0.955482
0.954672
0.953876
0.953098
0.952334
0.951585
0.950839
0.950101
0.949373
0.948651
0.94794
0.947237
0.946546
0.94587
0.945209
0.944563
0.943937
0.943331
0.94275
0.942197
0.941672
0.941176
0.940714
0.940283
0.939886
0.939519
0.939182
0.938867
0.938566
0.938267
0.937953
0.937601
0.93718
0.936655
0.935977
0.935088
0.933919
0.93239
0.930398
0.927837
0.924579
0.920479
0.915364
0.909015
0.90113
0.891218
0.878459
0.861446
0.837808
0.803874
0.75461
0.684426
0.589396
0.470909
0.338984
0.211952
0.109904
0.0444566
0.0128464
0.00229153
0.000182521
0.599351
0.825225
0.869501
0.887556
0.898172
0.907237
0.9173
0.930305
0.948734
0.970935
0.989741
0.996371
0.998622
0.999429
0.997663
0.992142
0.982849
0.970653
0.956791
0.942504
0.928858
0.916672
0.906506
0.898679
0.893299
0.890307
0.889511
0.890017
0.891956
0.895084
0.899146
0.903891
0.909094
0.914556
0.920109
0.925617
0.930971
0.936092
0.940922
0.945421
0.94957
0.953356
0.956777
0.95984
0.962555
0.964937
0.967005
0.968772
0.970264
0.971497
0.972493
0.973269
0.973846
0.974241
0.974473
0.974557
0.97451
0.974346
0.974081
0.973727
0.973295
0.972798
0.972245
0.971647
0.971012
0.970347
0.969659
0.968955
0.968239
0.967514
0.966787
0.966062
0.965337
0.964616
0.9639
0.963192
0.96249
0.961797
0.961112
0.960435
0.959768
0.959111
0.958462
0.95782
0.957185
0.95655
0.955913
0.95528
0.954642
0.95401
0.953375
0.952742
0.952111
0.951486
0.950861
0.950243
0.949628
0.949019
0.948418
0.94782
0.947231
0.946646
0.946061
0.945478
0.944891
0.944291
0.943669
0.943015
0.942311
0.941538
0.94067
0.939678
0.938521
0.937152
0.935515
0.933549
0.931175
0.928309
0.924853
0.920694
0.915707
0.909734
0.902566
0.893887
0.883181
0.869575
0.851575
0.826761
0.79153
0.741149
0.670625
0.576767
0.461336
0.333804
0.210978
0.111382
0.0462619
0.0138602
0.00259224
0.000219465
0.645781
0.838853
0.876006
0.890187
0.899428
0.907971
0.918137
0.931246
0.949884
0.973446
0.993047
0.998029
0.999367
0.99977
0.996756
0.988653
0.975712
0.959316
0.941173
0.922877
0.905717
0.890654
0.878318
0.869045
0.862911
0.859785
0.858979
0.860086
0.863013
0.867414
0.87294
0.879261
0.886084
0.893161
0.900288
0.907305
0.914089
0.920554
0.926638
0.932304
0.937532
0.942317
0.946662
0.950579
0.954085
0.9572
0.959947
0.96235
0.964432
0.966217
0.967732
0.968996
0.970032
0.970861
0.971504
0.971979
0.972304
0.972495
0.972568
0.972536
0.972412
0.97221
0.97194
0.97161
0.971231
0.970812
0.970358
0.969876
0.969372
0.968851
0.968315
0.967769
0.967216
0.966658
0.966096
0.965534
0.964971
0.964406
0.963842
0.963281
0.962718
0.962157
0.961598
0.961042
0.960484
0.959917
0.959346
0.958765
0.958178
0.957582
0.956978
0.956366
0.955744
0.955115
0.954476
0.953828
0.953168
0.952499
0.951817
0.951121
0.950411
0.949678
0.948924
0.94814
0.947317
0.946451
0.945527
0.944532
0.943446
0.942248
0.94091
0.939403
0.937685
0.935711
0.933435
0.930789
0.927709
0.924117
0.919928
0.915044
0.909351
0.902697
0.894875
0.885549
0.874156
0.85975
0.840751
0.814687
0.778016
0.726301
0.655103
0.561929
0.448978
0.325408
0.206853
0.110409
0.0466549
0.0143245
0.00276851
0.000244652
0.681531
0.848553
0.879724
0.891609
0.899644
0.90771
0.918051
0.931934
0.95037
0.97514
0.995699
0.999069
0.999753
0.999923
0.995339
0.983931
0.96647
0.945051
0.921947
0.899116
0.878076
0.859911
0.845318
0.834646
0.827924
0.824924
0.824291
0.826321
0.830584
0.836612
0.843943
0.852154
0.860878
0.869812
0.878716
0.887407
0.895756
0.903665
0.911082
0.917976
0.924328
0.930144
0.935435
0.940221
0.944526
0.948377
0.951804
0.954837
0.957504
0.959834
0.961853
0.963593
0.965075
0.966324
0.967361
0.968211
0.968885
0.969409
0.969796
0.970063
0.970225
0.97029
0.970274
0.970188
0.970039
0.969836
0.969588
0.969299
0.968978
0.968627
0.968255
0.96786
0.96745
0.967022
0.966587
0.966138
0.96568
0.965216
0.964744
0.964265
0.963778
0.963287
0.962788
0.962283
0.96177
0.961246
0.960706
0.960153
0.959583
0.958997
0.958393
0.95777
0.957131
0.956471
0.955791
0.955087
0.95436
0.953607
0.952823
0.952009
0.951158
0.950266
0.949327
0.948334
0.947277
0.946144
0.944925
0.943601
0.942154
0.94056
0.938791
0.936816
0.934596
0.932093
0.929254
0.926025
0.922347
0.91815
0.913363
0.907894
0.901637
0.894442
0.886088
0.876208
0.86418
0.848976
0.828926
0.801505
0.763253
0.710022
0.637924
0.545139
0.434331
0.314496
0.200305
0.107531
0.0459139
0.0143211
0.0028292
0.000257425
0.709288
0.855371
0.881704
0.89192
0.898821
0.90642
0.916948
0.931651
0.950814
0.975984
0.997718
0.999646
0.999925
0.99998
0.993376
0.977792
0.954858
0.927584
0.898872
0.871049
0.845819
0.824376
0.80749
0.795529
0.788474
0.785958
0.786086
0.789459
0.795486
0.80354
0.81303
0.82343
0.834294
0.84527
0.856088
0.866556
0.876533
0.885936
0.894709
0.902837
0.910315
0.917154
0.923379
0.929018
0.934104
0.938675
0.942761
0.946403
0.949633
0.952488
0.954995
0.957187
0.959093
0.960739
0.962149
0.963345
0.964353
0.965185
0.965867
0.966408
0.96683
0.96714
0.967355
0.967486
0.967542
0.96753
0.967462
0.967341
0.967177
0.966974
0.966737
0.966468
0.966175
0.965855
0.965517
0.965159
0.964784
0.964392
0.963985
0.963563
0.96313
0.962679
0.962216
0.961741
0.96125
0.960743
0.960211
0.959659
0.959082
0.958482
0.957855
0.957202
0.956519
0.955809
0.955065
0.954287
0.953472
0.952616
0.951717
0.950766
0.949763
0.948702
0.94757
0.946364
0.945071
0.943677
0.942168
0.940531
0.93874
0.936774
0.934609
0.932209
0.92954
0.926562
0.923234
0.919505
0.915322
0.910628
0.90535
0.89941
0.892703
0.885074
0.876277
0.865896
0.85325
0.837209
0.816014
0.787112
0.747137
0.692253
0.619117
0.526575
0.417769
0.301601
0.191908
0.10321
0.0442998
0.013945
0.00279276
0.000258945
0.73086
0.860032
0.882405
0.891044
0.896953
0.904034
0.91475
0.930369
0.95102
0.976146
0.999115
0.999908
0.999984
0.999996
0.990799
0.970046
0.940637
0.906711
0.871834
0.838644
0.808979
0.784116
0.764927
0.751856
0.744837
0.742885
0.744349
0.749751
0.75823
0.768927
0.781073
0.794026
0.807277
0.820447
0.833257
0.845522
0.857118
0.867976
0.87806
0.887367
0.89591
0.903715
0.910816
0.917253
0.923068
0.928308
0.933011
0.937219
0.940973
0.944312
0.947273
0.94989
0.952187
0.954203
0.955957
0.957477
0.958786
0.959907
0.960852
0.961646
0.9623
0.962831
0.963253
0.963577
0.963811
0.963969
0.964054
0.964079
0.964049
0.963969
0.963844
0.963679
0.963481
0.963247
0.962984
0.962694
0.962378
0.962037
0.961674
0.961289
0.960885
0.960458
0.960009
0.95954
0.959049
0.958538
0.957994
0.957422
0.956819
0.956185
0.955517
0.954812
0.954071
0.953289
0.952464
0.951595
0.950675
0.949701
0.94867
0.947574
0.946409
0.945168
0.94384
0.942417
0.940884
0.939232
0.937445
0.935504
0.933389
0.931076
0.928542
0.925755
0.922683
0.919291
0.915539
0.911382
0.906779
0.901673
0.896004
0.889695
0.882634
0.874651
0.865465
0.85461
0.841314
0.824354
0.801898
0.77137
0.729539
0.672899
0.598678
0.506367
0.399573
0.287134
0.182117
0.0978251
0.0420412
0.0132887
0.00268089
0.000251305
0.747501
0.862932
0.881865
0.888828
0.894004
0.900479
0.911347
0.92795
0.950228
0.976292
0.999879
0.999992
1
1
0.98753
0.960511
0.923622
0.882335
0.840859
0.802049
0.767769
0.739345
0.717826
0.703877
0.697413
0.695224
0.699004
0.707544
0.719527
0.733736
0.749179
0.765099
0.780965
0.796411
0.8112
0.825188
0.838288
0.850473
0.86173
0.872085
0.881567
0.890221
0.89809
0.905227
0.91168
0.917507
0.922752
0.927463
0.931682
0.935453
0.938816
0.941806
0.944456
0.946799
0.948861
0.95067
0.952249
0.953622
0.954806
0.955822
0.956684
0.957409
0.95801
0.958502
0.958892
0.959191
0.95941
0.959558
0.959638
0.959658
0.959626
0.959542
0.959416
0.959247
0.959038
0.958796
0.95852
0.958212
0.957872
0.957506
0.95711
0.956685
0.956233
0.955755
0.955246
0.954709
0.954136
0.953525
0.952877
0.95219
0.95146
0.950687
0.94987
0.949
0.948079
0.947101
0.946062
0.944957
0.943783
0.942531
0.941193
0.939764
0.938233
0.936588
0.934818
0.932912
0.930852
0.928622
0.926199
0.923565
0.920691
0.917556
0.914126
0.910371
0.906257
0.901748
0.896804
0.891374
0.8854
0.878809
0.87147
0.863189
0.85364
0.84229
0.828276
0.810283
0.786411
0.754101
0.710289
0.651851
0.576574
0.484592
0.379957
0.27142
0.171292
0.0916805
0.0393292
0.0124342
0.00251467
0.00023687
0.760085
0.864423
0.880371
0.885731
0.889927
0.895659
0.906619
0.924281
0.948418
0.976428
1
0.999999
0.999998
0.999999
0.983494
0.949028
0.903691
0.854486
0.806171
0.761649
0.722643
0.690447
0.666433
0.651869
0.646673
0.646496
0.653599
0.666186
0.682393
0.700603
0.719601
0.738562
0.75697
0.774524
0.791071
0.806529
0.820883
0.834142
0.84634
0.857523
0.867746
0.877067
0.885544
0.893237
0.900203
0.906504
0.912187
0.917304
0.921907
0.926038
0.929734
0.933038
0.935984
0.938604
0.940926
0.94298
0.94479
0.946378
0.947766
0.948969
0.950008
0.950895
0.95165
0.952282
0.952799
0.95322
0.953546
0.953791
0.953959
0.954057
0.954093
0.954069
0.953995
0.953869
0.953698
0.953482
0.953224
0.952932
0.952597
0.95223
0.951824
0.951387
0.950912
0.950404
0.94986
0.949281
0.948657
0.947992
0.947282
0.946526
0.945719
0.944859
0.943946
0.942975
0.94194
0.940839
0.939666
0.938419
0.937088
0.935665
0.934149
0.932522
0.930781
0.928917
0.92691
0.924752
0.922429
0.919918
0.917209
0.914275
0.911096
0.90765
0.903908
0.899848
0.895437
0.890645
0.885436
0.879765
0.873571
0.866766
0.859205
0.850655
0.840731
0.828823
0.813978
0.794793
0.769327
0.735078
0.68919
0.628955
0.552741
0.461308
0.359088
0.254711
0.159717
0.0850198
0.0363182
0.0114501
0.00231261
0.000217873
0.769238
0.864751
0.878023
0.881661
0.884653
0.889479
0.900428
0.919212
0.945469
0.975977
1
1
0.999998
0.999997
0.978634
0.935458
0.8808
0.823352
0.768237
0.71816
0.674408
0.638063
0.611003
0.596052
0.590041
0.594318
0.607944
0.627295
0.649406
0.672328
0.694933
0.716628
0.737112
0.756266
0.774066
0.79053
0.805707
0.819663
0.83246
0.844172
0.85487
0.864621
0.873495
0.881556
0.888874
0.8955
0.901491
0.906905
0.911786
0.91618
0.920129
0.923672
0.926845
0.92968
0.932208
0.934452
0.936443
0.938201
0.939749
0.941102
0.942279
0.943297
0.94417
0.944911
0.945531
0.946041
0.946448
0.946763
0.946997
0.94715
0.947234
0.947249
0.947203
0.9471
0.946945
0.946738
0.946482
0.946181
0.945836
0.945448
0.945017
0.944544
0.94403
0.943474
0.942877
0.942238
0.941548
0.94081
0.940019
0.939173
0.938272
0.93731
0.936285
0.935192
0.934028
0.932787
0.931467
0.930059
0.928556
0.926955
0.925244
0.923418
0.921462
0.919371
0.917129
0.914727
0.912147
0.909375
0.906398
0.903193
0.899745
0.896031
0.892031
0.887725
0.883085
0.878085
0.872689
0.866854
0.860511
0.853549
0.845792
0.836967
0.826612
0.814035
0.798194
0.77762
0.750358
0.714009
0.665986
0.604028
0.5271
0.436535
0.337093
0.23721
0.147616
0.0780333
0.0331305
0.0103912
0.00208982
0.000196204
0.775369
0.864087
0.874835
0.876335
0.877561
0.881843
0.892628
0.912571
0.941228
0.974829
0.999997
0.999997
0.999998
0.999996
0.972891
0.919669
0.854982
0.789326
0.727882
0.672824
0.624542
0.583458
0.551815
0.536016
0.531071
0.544896
0.569618
0.598039
0.626361
0.653224
0.678298
0.701561
0.723069
0.742909
0.761181
0.777984
0.793417
0.807578
0.820551
0.832421
0.84327
0.853176
0.862201
0.870416
0.877883
0.884669
0.89082
0.896389
0.901425
0.905974
0.910076
0.913769
0.917088
0.920064
0.922728
0.925105
0.927221
0.929096
0.930755
0.932214
0.933489
0.934595
0.935553
0.936368
0.937052
0.937623
0.938083
0.938443
0.938713
0.938895
0.939
0.939031
0.938993
0.938892
0.93873
0.938512
0.938235
0.937908
0.937531
0.937103
0.936627
0.936101
0.935528
0.934906
0.934236
0.933517
0.93274
0.931908
0.931018
0.930064
0.929046
0.927961
0.926803
0.925571
0.92426
0.922863
0.921375
0.919792
0.918107
0.916311
0.914399
0.912359
0.910186
0.90787
0.905395
0.902756
0.899935
0.896922
0.893704
0.890265
0.88659
0.88266
0.878462
0.873977
0.869181
0.864049
0.858544
0.852613
0.846168
0.83908
0.831124
0.82196
0.81106
0.797642
0.780588
0.758385
0.729109
0.690529
0.640367
0.576852
0.499532
0.410272
0.314069
0.219076
0.135166
0.0708701
0.0298602
0.00929955
0.00185802
0.000173351
0.778697
0.862609
0.870997
0.869964
0.868801
0.872681
0.883069
0.904153
0.935488
0.972951
1
1
0.999998
1
0.966212
0.90152
0.826367
0.753091
0.686481
0.627817
0.575962
0.529832
0.490159
0.460111
0.473739
0.51714
0.557235
0.588932
0.618391
0.645871