/*--------------------------------*- C++ -*----------------------------------*\
  =========                 |
  \\      /  F ield         | OpenFOAM: The Open Source CFD Toolbox
   \\    /   O peration     | Website:  https://openfoam.org
    \\  /    A nd           | Version:  13
     \\/     M anipulation  |
\*---------------------------------------------------------------------------*/
FoamFile
{
    format      ascii;
    class       volScalarField;
    location    "189.831886";
    object      T;
}
// * * * * * * * * * * * * * * * * * * * * * * * * * * * * * * * * * * * * * //

dimensions      [0 0 0 1 0 0 0];

internalField   nonuniform List<scalar> 
5712
(
1091.97
1091.86
1091.68
1091.51
1091.23
1091.07
1090.6
1090.47
1090.71
1090.56
1091.21
1091.05
1091.57
1091.41
1091.83
1091.71
1091.11
1090.9
1090.82
1090.53
1090.34
1090.07
1090.08
1089.73
1092.37
1093.03
1092.25
1092.86
1092.1
1092.72
1091.92
1092.51
1091.48
1091.81
1091.18
1091.6
1092.35
1092
1090.46
1089.93
1090.18
1089.79
1089.77
1089.33
1089.43
1089.09
1091.12
1090.57
1090.8
1090.38
1091.64
1091.1
1093.77
1094.21
1093.46
1093.91
1093.47
1094.02
1093.1
1093.61
1093.03
1093.77
1092.47
1093.16
1092.05
1092.73
1091.57
1092.26
1090.96
1090.87
1090.5
1090.46
1089.95
1089.83
1089.59
1089.47
1091.38
1091.52
1091.93
1091.96
1090.12
1090.12
1089.77
1089.84
1089.26
1089.16
1088.96
1088.9
1090.94
1091.16
1090.55
1090.87
1092.24
1093.07
1092.58
1093.52
1092.84
1093.69
1093.04
1094.02
1091.75
1092.56
1092.2
1093.12
1091.33
1092.12
1091.9
1092.81
1094.82
1095.79
1094.98
1095.95
1094.54
1095.44
1094.83
1095.75
1094.06
1094.74
1094.57
1095.33
1091.62
1090.42
1092.71
1093.53
1094.41
1090.57
1091.84
1093.14
1094.02
1094.98
1090.28
1091.41
1092.51
1093.55
1094.56
1096.69
1097.11
1097.19
1097.57
1096.24
1096.72
1096.89
1097.3
1095.45
1096
1096.37
1096.86
1090.84
1091.27
1092.23
1092.82
1093.5
1094.13
1094.53
1095.15
1095.89
1096.52
1090.47
1090.82
1091.74
1092.37
1092.93
1093.65
1094.12
1094.9
1095.62
1096.44
1091.18
1091.89
1090.67
1091.3
1089.94
1090.12
1089.48
1089.58
1091.93
1092.78
1092.43
1093.33
1090.24
1090.87
1089.96
1090.56
1089.12
1089.21
1088.86
1088.92
1091.48
1092.34
1091.2
1092.04
1093.37
1094.4
1095.14
1096.4
1093.77
1094.85
1095.41
1096.64
1093
1094
1094.89
1096.13
1092.65
1093.66
1094.52
1095.7
1097.22
1097.38
1097.71
1097.32
1097.36
1097.66
1096.93
1097.13
1097.49
1097.1
1097.16
1097.49
1096.33
1096.61
1097.01
1096.77
1096.88
1097.25
1091.8
1092.41
1093.06
1093.45
1093.98
1094.56
1094.71
1095.16
1095.66
1095.62
1095.99
1096.47
1096.51
1096.67
1097.11
1091.31
1091.99
1092.73
1093.2
1093.91
1094.64
1094.49
1095.11
1095.76
1095.54
1095.99
1096.56
1096.5
1096.72
1097.22
1088.98
1088.76
1088.79
1088.51
1089.6
1089.32
1089.37
1089.04
1088.83
1088.35
1088.77
1088.33
1088.7
1088.28
1088.61
1088.21
1088.3
1088.49
1088.19
1088.4
1088.2
1088.05
1088.29
1088.03
1088.77
1088.48
1088.18
1087.94
1088.01
1087.78
1087.96
1087.73
1087.87
1087.45
1087.95
1087.55
1087.82
1087.38
1087.84
1087.43
1087.77
1087.29
1087.67
1087.23
1087.6
1087.2
1087.4
1087.07
1088.46
1088.26
1088.21
1087.99
1089.11
1088.93
1088.81
1088.62
1087.79
1087.52
1088
1087.76
1087.97
1087.75
1087.72
1087.54
1088.53
1088.36
1088.26
1088.12
1087.58
1087.32
1087.35
1087.13
1087.43
1087.04
1087.21
1086.98
1087.6
1087.19
1087.42
1087.15
1087.26
1086.91
1087.03
1086.82
1087.07
1086.77
1086.87
1086.69
1087.87
1088.06
1087.49
1087.69
1087.87
1088.07
1087.46
1087.67
1087.88
1088.06
1087.42
1087.61
1088.63
1089.4
1088.15
1087.77
1087.37
1089.54
1088.78
1088.33
1087.96
1087.53
1089.26
1088.52
1087.98
1087.62
1087.32
1088.4
1088.87
1088.03
1088.49
1088.38
1088.83
1087.98
1088.42
1088.32
1088.74
1087.88
1088.29
1089.73
1090.08
1088.93
1089.29
1088.47
1088.84
1088.12
1088.5
1087.72
1088.1
1089.37
1089.57
1088.61
1088.82
1088.1
1088.34
1087.76
1088.07
1087.5
1087.89
1088.21
1088.27
1087.93
1087.9
1088.9
1088.94
1088.56
1088.49
1087.52
1087.6
1087.76
1087.91
1087.71
1087.63
1087.5
1087.4
1088.3
1088.17
1088.06
1087.9
1087.32
1087.35
1087.14
1087.14
1087.26
1087.45
1087.13
1087.44
1087.48
1087.73
1087.3
1087.65
1087.08
1087.22
1086.98
1087.25
1086.93
1087.05
1086.85
1087.08
1089.51
1090.14
1090.74
1089.28
1089.99
1090.59
1089.43
1090.07
1090.68
1089.17
1089.9
1090.52
1089.3
1089.94
1090.56
1089.01
1089.77
1090.44
1090.57
1091.17
1091.83
1089.79
1090.42
1091.09
1089.35
1090.01
1090.69
1089.04
1089.7
1090.36
1088.83
1089.63
1090.36
1089.95
1090.61
1091.36
1089.22
1089.89
1090.64
1088.81
1089.52
1090.29
1088.62
1089.37
1090.15
1088.65
1089.48
1090.29
1087.25
1087.5
1088.21
1089.53
1087.37
1087.64
1088.37
1089.7
1087.2
1087.46
1088.17
1089.5
1087.28
1087.57
1088.3
1089.64
1087.14
1087.41
1088.09
1089.38
1087.11
1087.42
1088.15
1089.46
1087.13
1087.48
1088.26
1089.61
1087.06
1087.45
1088.26
1089.62
1086.98
1087.31
1088.02
1089.33
1087
1087.36
1088.01
1089.18
1087.09
1087.39
1088.03
1089.24
1087.13
1087.45
1088.05
1089.15
1086.89
1087.26
1088.02
1089.38
1086.89
1087.29
1087.97
1089.17
1086.8
1087.2
1087.99
1089.34
1086.8
1087.22
1087.93
1089.12
1087.27
1087.5
1088.13
1089.38
1087.44
1087.62
1088.17
1089.25
1087.26
1087.49
1088.12
1089.35
1087.43
1087.63
1088.17
1089.24
1087.24
1087.48
1088.09
1089.29
1087.4
1087.61
1088.16
1089.22
1087.24
1087.5
1088.08
1089.2
1087.37
1087.61
1088.14
1089.17
1087.25
1087.54
1088.09
1089.12
1087.7
1087.85
1088.33
1089.1
1087.99
1088.11
1088.61
1089.33
1087.67
1087.83
1088.32
1089.09
1087.95
1088.1
1088.6
1089.33
1087.61
1087.8
1088.3
1089.08
1087.9
1088.07
1088.59
1089.32
1087.53
1087.75
1088.27
1089.05
1087.82
1088.03
1088.56
1089.3
1087.42
1087.69
1088.23
1089.01
1087.73
1087.98
1088.54
1089.28
1087.21
1087.58
1088.17
1088.99
1087.49
1087.85
1088.45
1089.22
1087.31
1087.64
1088.2
1089
1087.61
1087.92
1088.5
1089.25
1087.12
1087.52
1088.14
1088.97
1087.38
1087.78
1088.41
1089.19
1087.03
1087.46
1088.11
1088.94
1087.28
1087.72
1088.37
1089.16
1091.55
1093.19
1094.6
1095.74
1096.63
1091.66
1093.28
1094.68
1095.82
1096.71
1091.54
1093.19
1094.59
1095.74
1096.63
1091.64
1093.27
1094.67
1095.82
1096.71
1091.52
1093.18
1094.59
1095.74
1096.63
1091.56
1093.2
1094.61
1095.76
1096.65
1091.61
1093.25
1094.65
1095.81
1096.7
1091.58
1093.23
1094.64
1095.79
1096.69
1091.51
1093.17
1094.58
1095.73
1096.62
1091.59
1093.29
1094.71
1095.86
1096.75
1091.52
1093.2
1094.61
1095.76
1096.65
1091.62
1093.32
1094.74
1095.89
1096.78
1091.5
1093.17
1094.58
1095.74
1096.63
1091.6
1093.31
1094.72
1095.88
1096.77
1091.48
1093.15
1094.57
1095.73
1096.62
1091.59
1093.31
1094.73
1095.89
1096.78
1091.57
1093.23
1094.64
1095.79
1096.68
1091.69
1093.38
1094.79
1095.94
1096.82
1091.56
1093.24
1094.64
1095.79
1096.68
1091.68
1093.38
1094.79
1095.94
1096.82
1091.57
1093.25
1094.66
1095.81
1096.7
1091.69
1093.39
1094.8
1095.95
1096.83
1091.6
1093.3
1094.72
1095.87
1096.75
1091.71
1093.41
1094.83
1095.97
1096.86
1091.67
1093.38
1094.8
1095.95
1096.83
1099.29
1099.57
1099.17
1099.46
1098.95
1099.27
1098.67
1099.04
1098.39
1098.82
1097.96
1098.45
1098.18
1098.66
1097.74
1098.22
1097.5
1097.94
1102.43
1105.89
1108.81
1111.09
1112.66
1102.38
1105.86
1108.82
1111.11
1112.7
1102.38
1105.86
1108.79
1111.08
1112.65
1102.33
1105.84
1108.8
1111.11
1112.7
1102.27
1105.8
1108.75
1111.05
1112.62
1102.23
1105.78
1108.76
1111.08
1112.67
1102.12
1105.71
1108.69
1111
1112.58
1102.09
1105.7
1108.7
1111.04
1112.63
1101.95
1105.6
1108.61
1110.94
1112.53
1101.95
1105.61
1108.64
1110.99
1112.59
1101.58
1105.32
1108.4
1110.77
1112.38
1101.61
1105.36
1108.45
1110.83
1112.45
1101.76
1105.46
1108.51
1110.86
1112.46
1101.79
1105.49
1108.55
1110.92
1112.53
1101.39
1105.17
1108.29
1110.68
1112.29
1101.41
1105.2
1108.32
1110.73
1112.35
1101.19
1105.02
1108.16
1110.58
1112.2
1101.19
1105.03
1108.19
1110.61
1112.25
1088.33
1088.77
1089.13
1088.63
1089.21
1089.15
1089.14
1089.05
1089.29
1089.17
1089.87
1089.73
1090.17
1090.01
1089.73
1089.6
1089.55
1089.46
1089.51
1089.44
1088.63
1088.49
1089.63
1090.11
1090.28
1090.31
1089.88
1089.8
1090.38
1089.66
1090.86
1091.6
1089.75
1089.99
1090.56
1089.89
1090.16
1090.19
1089.31
1089.23
1089.51
1089.38
1089.26
1089.12
1089.24
1089.42
1090.06
1089.93
1089.72
1089.59
1088.83
1088.63
1088.92
1088.75
1088.93
1089
1089.28
1089.7
1089.28
1087.85
1087.45
1087.27
1087.28
1087.48
1087.92
1087.59
1087.44
1087.48
1087.74
1089.26
1089.09
1089.07
1089.21
1089.53
1089.75
1089.59
1089.59
1089.74
1090.07
1089.91
1089.75
1089.73
1089.89
1090.21
1089.95
1089.8
1089.79
1089.95
1090.28
1089.51
1089.34
1089.32
1089.47
1089.79
1088.95
1088.43
1088.15
1088.08
1088.22
1089.47
1088.91
1088.61
1088.55
1088.71
1089.07
1088.68
1088.47
1088.47
1088.71
1090.02
1089.49
1089.21
1089.17
1089.38
1090.79
1090.23
1089.96
1089.92
1090.12
1089.29
1089.01
1088.9
1088.97
1089.25
1089.44
1089.09
1088.91
1088.94
1089.2
1090.03
1089.69
1089.53
1089.56
1089.82
1089.46
1089.22
1089.13
1089.23
1089.52
1089.7
1089.43
1089.32
1089.39
1089.67
1089.76
1089.53
1089.45
1089.55
1089.85
1088.54
1088.09
1087.86
1087.83
1088
1088.7
1088.38
1088.22
1088.26
1088.52
1089.07
1088.82
1088.72
1088.81
1089.11
1088.96
1088.74
1088.67
1088.77
1089.07
1088.8
1088.54
1088.44
1088.52
1088.8
1088.7
1088.46
1088.38
1088.48
1088.78
1088.84
1088.64
1088.6
1088.72
1089.03
1089.03
1088.83
1088.78
1088.91
1089.22
1089.67
1089.47
1089.43
1089.56
1089.87
1089.55
1089.37
1089.34
1089.48
1089.8
1089.31
1089.09
1089.03
1089.14
1089.44
1089.19
1088.99
1088.94
1089.06
1089.37
1088.08
1087.66
1087.47
1087.46
1087.65
1088.1
1087.78
1087.64
1087.7
1087.96
1088.31
1087.94
1087.76
1087.76
1087.98
1088.29
1088.01
1087.91
1087.98
1088.27
1088.49
1088.24
1088.15
1088.24
1088.54
1088.49
1088.18
1088.03
1088.08
1088.34
1088.88
1088.68
1088.63
1088.75
1089.06
1089.32
1089.13
1089.1
1089.24
1089.56
1088.87
1088.65
1088.59
1088.7
1089.01
1088.69
1088.91
1088.71
1088.96
1088.11
1088.37
1088.1
1088.33
1088.73
1088.76
1088.97
1088.92
1088.12
1088.13
1088.36
1088.29
1089.3
1089.88
1089.49
1090.06
1089.3
1089.83
1089.53
1090.06
1089.55
1089.34
1089.42
1089.29
1089.75
1089.96
1089.26
1089.51
1089.15
1089.43
1088.67
1088.94
1088.52
1088.78
1089.83
1090.1
1089.66
1089.98
1090.26
1090.59
1090.42
1090.88
1090.57
1091.01
1090.38
1090.93
1090.58
1091.06
1090.29
1091.04
1090.42
1091.09
1090.7
1091.38
1091.09
1091.78
1088.94
1089.09
1089.06
1089.23
1088.18
1088.23
1088.3
1088.34
1089.78
1090.21
1089.68
1090.07
1089.24
1089.39
1089.48
1089.6
1088.48
1088.49
1088.7
1088.68
1089.96
1090.39
1090.23
1090.61
1090.52
1091.35
1091.23
1092.18
1090.46
1091.36
1091.11
1092.11
1090.7
1091.49
1091.4
1092.32
1090.98
1091.76
1091.64
1092.54
1090.47
1090.76
1090.99
1091.44
1090.43
1090.67
1091.07
1091.5
1090.35
1090.48
1091.21
1091.56
1088.91
1088.13
1089.68
1090.5
1091.54
1088.1
1088.85
1089.62
1090.49
1091.73
1088.16
1089.01
1089.98
1091.04
1092.13
1091.21
1091.41
1092.61
1093.01
1091
1091.2
1092.52
1092.92
1090.68
1090.84
1092.42
1092.82
1088.11
1088.21
1088.91
1089.04
1089.75
1089.87
1090.75
1090.91
1092.54
1092.98
1088.16
1088.26
1089.09
1089.35
1090.15
1090.49
1091.37
1091.78
1093.03
1093.55
1089.3
1089.76
1089.42
1089.89
1088.24
1088.27
1088.34
1088.34
1090.62
1091.3
1090.47
1091.12
1089.52
1090.06
1089.73
1090.31
1088.46
1088.49
1088.64
1088.69
1090.72
1091.49
1090.95
1091.77
1092.05
1092.94
1093.87
1095.01
1091.81
1092.68
1093.54
1094.61
1092.22
1093.15
1094.14
1095.32
1092.39
1093.38
1094.28
1095.44
1091.47
1091.63
1092.71
1092.72
1091.26
1091.44
1092.66
1092.64
1090.96
1091.22
1092.6
1092.6
1088.42
1088.8
1089.27
1089.62
1090.07
1090.38
1091.07
1091.36
1092.69
1092.66
1088.47
1088.87
1089.71
1090.08
1090.79
1091.06
1091.89
1091.99
1093.01
1092.89
1087.15
1087.13
1087.38
1087.28
1087.58
1087.56
1087.83
1087.72
1086.84
1086.61
1087.06
1086.83
1086.85
1086.64
1087.08
1086.86
1087.05
1086.84
1087.02
1086.87
1086.69
1086.88
1087.5
1087.76
1087.94
1088.19
1087.33
1087.63
1087.24
1087.51
1087.15
1087.42
1086.47
1086.37
1086.68
1086.56
1086.48
1086.35
1086.69
1086.55
1086.5
1086.33
1086.66
1086.47
1086.91
1086.69
1087.15
1086.88
1087.05
1087.03
1087.16
1087.1
1087.54
1087.53
1087.66
1087.62
1086.82
1086.75
1086.72
1086.69
1087.32
1087.22
1087.51
1087.36
1087.83
1087.76
1088.03
1087.92
1086.97
1086.84
1087.15
1086.97
1086.58
1086.39
1086.54
1086.43
1086.49
1086.33
1086.49
1086.4
1086.72
1086.5
1086.62
1086.49
1086.89
1086.63
1086.73
1086.58
1086.38
1086.42
1086.29
1086.36
1086.41
1086.45
1086.3
1086.36
1086.45
1086.49
1086.31
1086.37
1087.01
1087.49
1086.69
1086.47
1086.34
1087.49
1087.03
1086.72
1086.5
1086.39
1087.48
1087
1086.67
1086.48
1086.4
1086.57
1086.83
1086.54
1086.82
1086.57
1086.82
1086.52
1086.79
1086.58
1086.8
1086.5
1086.75
1087.49
1087.59
1087.03
1087.15
1086.75
1086.9
1086.56
1086.74
1086.49
1086.71
1087.44
1087.47
1086.97
1087.02
1086.67
1086.77
1086.52
1086.68
1086.49
1086.71
1086.95
1086.92
1087.04
1086.95
1087.44
1087.37
1087.55
1087.41
1086.73
1086.74
1086.66
1086.71
1087.18
1087.06
1087.33
1087.21
1087.7
1087.53
1087.87
1087.7
1086.85
1086.84
1086.98
1086.98
1086.57
1086.69
1086.56
1086.78
1086.52
1086.67
1086.51
1086.74
1086.66
1086.76
1086.64
1086.85
1086.78
1086.89
1086.73
1086.95
1087.15
1087.45
1087.23
1087.58
1087.11
1087.43
1087.2
1087.57
1087.08
1087.43
1087.15
1087.58
1087.8
1088.18
1087.39
1087.78
1087.15
1087.55
1087.02
1087.43
1087.11
1087.62
1087.64
1088.07
1087.22
1087.68
1087.03
1087.51
1087
1087.5
1087.15
1087.72
1086.51
1087
1087.87
1089.3
1086.69
1087.18
1088.05
1089.49
1086.49
1086.99
1087.85
1089.29
1086.67
1087.15
1088.02
1089.45
1086.49
1086.97
1087.79
1089.19
1086.59
1087.07
1087.9
1089.3
1086.78
1087.25
1088.09
1089.5
1086.93
1087.37
1088.2
1089.58
1086.53
1087.01
1087.81
1089.18
1086.62
1087.1
1087.82
1089.04
1086.51
1086.99
1087.75
1089.05
1086.6
1087.09
1087.8
1088.98
1086.6
1087.06
1087.88
1089.28
1086.66
1087.13
1087.85
1089.08
1086.7
1087.13
1087.94
1089.31
1086.72
1087.17
1087.89
1089.09
1086.45
1086.94
1087.76
1089.12
1086.53
1087.02
1087.76
1088.97
1086.46
1086.95
1087.76
1089.11
1086.55
1087.04
1087.77
1088.97
1086.49
1086.98
1087.75
1089.06
1086.57
1087.06
1087.78
1088.96
1086.54
1087.03
1087.76
1088.99
1086.6
1087.09
1087.8
1088.94
1086.62
1087.11
1087.8
1088.92
1086.73
1087.21
1087.9
1088.78
1086.98
1087.47
1088.17
1088.99
1086.73
1087.21
1087.9
1088.77
1086.98
1087.47
1088.17
1088.99
1086.73
1087.22
1087.91
1088.78
1086.98
1087.48
1088.18
1088.99
1086.73
1087.23
1087.91
1088.78
1086.99
1087.49
1088.19
1089
1086.74
1087.24
1087.92
1088.78
1087
1087.5
1088.21
1089.01
1086.82
1087.31
1087.98
1088.83
1087.05
1087.55
1088.25
1089.05
1086.77
1087.27
1087.95
1088.81
1087.01
1087.52
1088.22
1089.03
1086.88
1087.36
1088.03
1088.88
1087.11
1087.6
1088.29
1089.09
1086.95
1087.41
1088.07
1088.91
1087.19
1087.66
1088.33
1089.12
1091.42
1093.11
1094.54
1095.71
1096.61
1091.53
1093.2
1094.63
1095.79
1096.69
1091.42
1093.11
1094.55
1095.71
1096.61
1091.52
1093.2
1094.62
1095.79
1096.68
1091.41
1093.11
1094.54
1095.71
1096.6
1091.47
1093.14
1094.57
1095.73
1096.63
1091.54
1093.21
1094.63
1095.79
1096.68
1091.56
1093.21
1094.63
1095.79
1096.68
1091.42
1093.12
1094.55
1095.71
1096.61
1091.51
1093.25
1094.68
1095.84
1096.74
1091.42
1093.14
1094.57
1095.74
1096.63
1091.53
1093.27
1094.7
1095.86
1096.76
1091.45
1093.13
1094.56
1095.72
1096.62
1091.55
1093.27
1094.71
1095.86
1096.76
1091.46
1093.14
1094.56
1095.72
1096.61
1091.58
1093.3
1094.72
1095.88
1096.77
1091.42
1093.15
1094.59
1095.75
1096.65
1091.54
1093.29
1094.73
1095.9
1096.79
1091.43
1093.15
1094.59
1095.76
1096.65
1091.54
1093.29
1094.74
1095.9
1096.8
1091.44
1093.18
1094.61
1095.78
1096.67
1091.56
1093.31
1094.75
1095.91
1096.81
1091.49
1093.24
1094.68
1095.84
1096.73
1091.59
1093.34
1094.78
1095.95
1096.84
1091.57
1093.32
1094.76
1095.92
1096.81
1095.57
1095.89
1095.61
1095.94
1095.71
1096.05
1095.87
1096.2
1096.13
1096.42
1096.8
1097.17
1096.5
1096.82
1097.05
1097.46
1097.28
1097.7
1099.71
1103.93
1107.34
1109.91
1111.62
1099.61
1103.88
1107.33
1109.92
1111.66
1099.75
1103.96
1107.36
1109.93
1111.63
1099.66
1103.92
1107.35
1109.95
1111.68
1099.83
1104.01
1107.4
1109.96
1111.66
1099.74
1103.97
1107.39
1109.98
1111.7
1099.96
1104.1
1107.46
1110.01
1111.7
1099.86
1104.05
1107.45
1110.03
1111.74
1100.14
1104.23
1107.55
1110.08
1111.77
1100.02
1104.16
1107.52
1110.08
1111.8
1100.58
1104.53
1107.78
1110.26
1111.92
1100.5
1104.48
1107.76
1110.27
1111.95
1100.36
1104.37
1107.66
1110.17
1111.84
1100.24
1104.3
1107.63
1110.17
1111.86
1100.79
1104.7
1107.91
1110.37
1112.01
1100.75
1104.67
1107.91
1110.38
1112.05
1101
1104.86
1108.04
1110.47
1112.11
1100.97
1104.86
1108.05
1110.5
1112.15
1088
1088.42
1088.13
1087.7
1087.16
1087.38
1087.15
1087.41
1087.59
1087.85
1087.59
1087.81
1091.88
1091.81
1091.64
1091.36
1090.99
1090.55
1091.91
1091.84
1091.68
1091.42
1091.08
1090.69
1092.06
1092.33
1091.98
1092.24
1091.79
1092.02
1091.48
1091.66
1091.06
1091.2
1090.57
1090.73
1090.07
1089.62
1089.24
1088.93
1088.7
1088.53
1090.27
1089.86
1089.49
1089.19
1088.95
1088.79
1091.54
1091.41
1091.43
1091.61
1091.95
1091.47
1091.34
1091.36
1091.54
1091.88
1091.3
1091.17
1091.19
1091.36
1091.7
1091.02
1090.89
1090.9
1091.08
1091.41
1090.65
1090.51
1090.52
1090.69
1091.02
1090.2
1090.05
1090.05
1090.22
1090.55
1091.57
1091.44
1091.46
1091.64
1091.98
1091.51
1091.38
1091.4
1091.57
1091.91
1091.34
1091.21
1091.23
1091.4
1091.74
1091.08
1090.94
1090.96
1091.13
1091.47
1090.74
1090.6
1090.61
1090.78
1091.11
1090.34
1090.19
1090.19
1090.36
1090.69
1091.73
1091.59
1091.62
1091.8
1092.13
1092
1091.87
1091.89
1092.07
1092.4
1091.65
1091.51
1091.54
1091.71
1092.05
1091.91
1091.78
1091.8
1091.98
1092.31
1091.45
1091.32
1091.34
1091.51
1091.85
1091.69
1091.55
1091.57
1091.75
1092.08
1091.14
1091
1091.02
1091.19
1091.53
1091.32
1091.19
1091.2
1091.38
1091.71
1090.71
1090.57
1090.58
1090.76
1091.09
1090.86
1090.72
1090.73
1090.9
1091.23
1090.22
1090.07
1090.08
1090.24
1090.57
1090.38
1090.23
1090.23
1090.4
1090.72
1089.71
1089.55
1089.54
1089.7
1090.03
1089.25
1089.07
1089.05
1089.2
1089.52
1088.85
1088.65
1088.61
1088.74
1089.05
1088.51
1088.28
1088.21
1088.32
1088.62
1088.24
1087.99
1087.9
1087.99
1088.28
1088.05
1087.78
1087.67
1087.76
1088.04
1089.91
1089.75
1089.74
1089.9
1090.23
1089.49
1089.31
1089.29
1089.44
1089.76
1089.11
1088.92
1088.88
1089.02
1089.33
1088.78
1088.57
1088.52
1088.64
1088.95
1088.53
1088.3
1088.24
1088.35
1088.65
1088.35
1088.12
1088.04
1088.15
1088.44
1091.84
1091.7
1091.45
1091.1
1090.66
1090.13
1091.87
1091.73
1091.5
1091.17
1090.76
1090.3
1092.02
1092.29
1091.87
1092.12
1091.59
1091.82
1091.2
1091.38
1090.71
1090.83
1090.13
1090.26
1089.59
1089.09
1088.7
1088.45
1088.37
1088.41
1089.82
1089.39
1089.04
1088.8
1088.69
1088.69
1091.51
1091.38
1091.4
1091.58
1091.91
1091.36
1091.23
1091.25
1091.43
1091.77
1091.12
1090.98
1091
1091.18
1091.52
1090.76
1090.63
1090.65
1090.83
1091.16
1090.32
1090.18
1090.19
1090.37
1090.7
1089.79
1089.64
1089.65
1089.82
1090.16
1091.54
1091.41
1091.43
1091.61
1091.94
1091.4
1091.27
1091.29
1091.47
1091.8
1091.16
1091.03
1091.05
1091.22
1091.56
1090.83
1090.69
1090.71
1090.89
1091.22
1090.42
1090.28
1090.29
1090.47
1090.8
1089.95
1089.8
1089.81
1089.98
1090.32
1091.69
1091.56
1091.58
1091.76
1092.09
1091.96
1091.83
1091.85
1092.03
1092.36
1091.53
1091.4
1091.42
1091.6
1091.94
1091.79
1091.66
1091.68
1091.86
1092.19
1091.26
1091.13
1091.15
1091.33
1091.66
1091.48
1091.35
1091.37
1091.55
1091.89
1090.87
1090.73
1090.75
1090.93
1091.26
1091.04
1090.9
1090.92
1091.1
1091.43
1090.36
1090.23
1090.24
1090.42
1090.75
1090.49
1090.35
1090.37
1090.54
1090.87
1089.79
1089.64
1089.65
1089.82
1090.16
1089.91
1089.76
1089.77
1089.95
1090.28
1089.23
1089.08
1089.08
1089.25
1089.58
1088.72
1088.56
1088.55
1088.7
1089.03
1088.32
1088.13
1088.11
1088.25
1088.57
1088.04
1087.83
1087.78
1087.9
1088.21
1087.92
1087.68
1087.6
1087.7
1088
1087.94
1087.67
1087.57
1087.65
1087.94
1089.47
1089.31
1089.32
1089.48
1089.81
1089.03
1088.86
1088.85
1089.01
1089.33
1088.66
1088.48
1088.46
1088.6
1088.92
1088.41
1088.21
1088.16
1088.29
1088.61
1088.27
1088.05
1087.99
1088.11
1088.42
1088.26
1088.03
1087.96
1088.06
1088.36
1088.42
1088.33
1089.03
1089.59
1089.63
1089.75
1089.24
1088.09
1088.25
1088.12
1088.62
1088.49
1088.44
1088.76
1088.84
1089.05
1088.04
1088.04
1088.42
1088.45
1088.22
1088.28
1088.57
1088.65
1089.16
1089.15
1088.74
1088.73
1088.22
1088.18
1088.01
1088.13
1088.18
1088.03
1088.53
1088.98
1088.44
1087.66
1087.27
1087.11
1087.13
1087.34
1087.77
1087.44
1087.3
1087.35
1087.62
1088.66
1088.5
1088.49
1088.65
1088.98
1089.23
1089.08
1089.08
1089.25
1089.58
1089.27
1089.11
1089.12
1089.28
1089.61
1089.4
1089.25
1089.26
1089.42
1089.75
1088.88
1088.72
1088.72
1088.88
1089.21
1087.42
1087.07
1086.92
1086.96
1087.17
1087.6
1087.27
1087.13
1087.18
1087.42
1087.63
1087.36
1087.25
1087.33
1087.61
1088.04
1087.74
1087.63
1087.71
1087.98
1088.08
1087.88
1087.83
1087.95
1088.26
1087.99
1087.75
1087.67
1087.78
1088.08
1088.37
1088.18
1088.15
1088.29
1088.6
1088.44
1088.24
1088.2
1088.33
1088.65
1088.66
1088.48
1088.45
1088.59
1088.91
1087.38
1087.04
1086.9
1086.94
1087.16
1087.58
1087.32
1087.23
1087.32
1087.62
1088.02
1087.82
1087.77
1087.9
1088.22
1088.06
1087.86
1087.83
1087.97
1088.29
1087.8
1087.59
1087.53
1087.65
1087.96
1087.87
1087.67
1087.63
1087.76
1088.07
1088.19
1088.01
1087.98
1088.12
1088.45
1088.27
1088.09
1088.07
1088.22
1088.54
1088.79
1088.62
1088.6
1088.76
1089.08
1088.79
1088.62
1088.62
1088.77
1089.1
1088.36
1088.17
1088.15
1088.29
1088.61
1088.35
1088.18
1088.16
1088.31
1088.63
1087.51
1087.15
1086.99
1087.02
1087.24
1087.67
1087.38
1087.26
1087.33
1087.61
1087.45
1087.15
1087.02
1087.07
1087.32
1087.68
1087.44
1087.36
1087.46
1087.75
1087.76
1087.54
1087.48
1087.6
1087.91
1087.56
1087.3
1087.21
1087.3
1087.59
1088.15
1087.97
1087.94
1088.08
1088.4
1088.61
1088.44
1088.43
1088.59
1088.92
1088.05
1087.86
1087.82
1087.96
1088.28
1088.61
1088.3
1088.18
1088.24
1088.45
1088.87
1088.62
1088.64
1088.03
1088.02
1088.67
1088.72
1088.04
1088.07
1089.25
1089.91
1089.25
1089.85
1089.31
1089.28
1089.74
1088.6
1088.63
1088.01
1087.99
1088.66
1088.71
1088.03
1088.06
1089.29
1089.99
1089.29
1089.91
1089.35
1089.29
1089.79
1088.61
1088.65
1088
1087.99
1088.68
1088.72
1088.03
1088.06
1089.32
1090.17
1089.33
1090.06
1089.38
1089.32
1089.92
1088.73
1088.76
1088.1
1088.09
1088.79
1088.85
1088.13
1088.17
1089.49
1090.38
1089.48
1090.26
1089.52
1089.46
1090.09
1088.93
1088.96
1088.31
1088.29
1088.99
1089.06
1088.33
1088.37
1089.69
1090.52
1089.68
1090.43
1089.72
1089.66
1090.26
1089.3
1089.32
1088.68
1088.66
1089.34
1089.4
1088.7
1088.73
1090.01
1090.78
1090
1090.69
1090.02
1089.97
1090.52
1087.07
1087.07
1087.5
1087.5
1087.08
1087.08
1087.51
1087.52
1086.76
1086.52
1086.77
1086.55
1086.78
1086.81
1086.63
1087.04
1087.05
1087.47
1087.47
1087.06
1087.07
1087.49
1087.5
1086.72
1086.52
1086.74
1086.56
1086.76
1086.81
1086.64
1087.03
1087.04
1087.47
1087.46
1087.06
1087.09
1087.49
1087.51
1086.74
1086.6
1086.77
1086.64
1086.8
1086.85
1086.71
1087.13
1087.15
1087.57
1087.55
1087.18
1087.21
1087.59
1087.61
1086.87
1086.79
1086.9
1086.83
1086.95
1087.01
1086.89
1087.35
1087.36
1087.77
1087.76
1087.4
1087.44
1087.8
1087.82
1087.11
1087.06
1087.14
1087.09
1087.19
1087.26
1087.15
1087.74
1087.75
1088.16
1088.14
1087.79
1087.83
1088.18
1088.2
1087.5
1087.42
1087.54
1087.45
1087.58
1087.64
1087.51
1091.99
1091.89
1091.68
1091.52
1091.24
1091.07
1090.6
1090.47
1090.72
1090.56
1091.21
1091.05
1091.57
1091.42
1091.85
1091.74
1091.11
1090.9
1090.82
1090.53
1090.34
1090.07
1090.08
1089.73
1092.39
1093.04
1092.27
1092.88
1092.1
1092.73
1091.92
1092.51
1091.48
1091.82
1091.18
1091.6
1092.36
1092
1090.46
1089.93
1090.18
1089.79
1089.77
1089.33
1089.43
1089.1
1091.12
1090.57
1090.8
1090.39
1091.64
1091.1
1093.78
1094.22
1093.48
1093.93
1093.47
1094.02
1093.11
1093.61
1093.03
1093.77
1092.47
1093.16
1092.05
1092.73
1091.57
1092.26
1090.96
1090.87
1090.5
1090.46
1089.95
1089.83
1089.59
1089.47
1091.38
1091.52
1091.93
1091.96
1090.12
1090.12
1089.77
1089.84
1089.26
1089.16
1088.96
1088.9
1090.94
1091.16
1090.55
1090.87
1092.24
1093.07
1092.58
1093.52
1092.84
1093.69
1093.04
1094.02
1091.76
1092.56
1092.2
1093.12
1091.33
1092.12
1091.9
1092.81
1094.84
1095.81
1094.99
1095.96
1094.54
1095.44
1094.83
1095.75
1094.06
1094.74
1094.57
1095.33
1091.62
1090.42
1092.71
1093.53
1094.41
1090.58
1091.85
1093.14
1094.02
1094.98
1090.28
1091.41
1092.51
1093.55
1094.56
1096.7
1097.13
1097.2
1097.58
1096.24
1096.72
1096.89
1097.3
1095.45
1096
1096.37
1096.86
1090.84
1091.27
1092.23
1092.82
1093.5
1094.13
1094.53
1095.15
1095.89
1096.52
1090.47
1090.82
1091.74
1092.37
1092.93
1093.65
1094.12
1094.9
1095.62
1096.44
1091.18
1091.89
1090.67
1091.3
1089.94
1090.12
1089.49
1089.58
1091.93
1092.78
1092.43
1093.33
1090.24
1090.87
1089.96
1090.56
1089.12
1089.21
1088.86
1088.92
1091.48
1092.34
1091.2
1092.04
1093.37
1094.4
1095.14
1096.4
1093.77
1094.85
1095.41
1096.64
1093
1094
1094.89
1096.13
1092.65
1093.66
1094.52
1095.7
1097.23
1097.39
1097.72
1097.32
1097.37
1097.67
1096.93
1097.13
1097.49
1097.1
1097.16
1097.49
1096.33
1096.61
1097.01
1096.77
1096.88
1097.25
1091.8
1092.41
1093.06
1093.45
1093.98
1094.56
1094.71
1095.16
1095.66
1095.62
1095.99
1096.47
1096.51
1096.67
1097.11
1091.31
1091.99
1092.73
1093.2
1093.91
1094.64
1094.49
1095.11
1095.76
1095.54
1095.99
1096.56
1096.5
1096.72
1097.22
1088.98
1088.76
1088.79
1088.51
1089.6
1089.32
1089.37
1089.04
1088.83
1088.36
1088.78
1088.34
1088.7
1088.28
1088.61
1088.21
1088.3
1088.49
1088.19
1088.4
1088.2
1088.05
1088.29
1088.03
1088.77
1088.48
1088.18
1087.94
1088.01
1087.78
1087.96
1087.73
1087.88
1087.45
1087.96
1087.56
1087.82
1087.38
1087.84
1087.43
1087.77
1087.29
1087.67
1087.23
1087.6
1087.2
1087.4
1087.07
1088.46
1088.26
1088.21
1087.99
1089.11
1088.93
1088.81
1088.62
1087.79
1087.52
1088
1087.76
1087.97
1087.75
1087.72
1087.54
1088.53
1088.36
1088.26
1088.12
1087.58
1087.32
1087.35
1087.13
1087.43
1087.04
1087.21
1086.98
1087.6
1087.19
1087.42
1087.15
1087.26
1086.91
1087.03
1086.82
1087.07
1086.77
1086.87
1086.69
1087.88
1088.06
1087.49
1087.69
1087.87
1088.07
1087.46
1087.67
1087.88
1088.06
1087.42
1087.61
1088.63
1089.4
1088.15
1087.77
1087.37
1089.54
1088.78
1088.33
1087.96
1087.53
1089.26
1088.52
1087.99
1087.62
1087.32
1088.4
1088.87
1088.03
1088.49
1088.38
1088.83
1087.98
1088.42
1088.32
1088.74
1087.88
1088.29
1089.73
1090.08
1088.93
1089.29
1088.47
1088.84
1088.12
1088.5
1087.72
1088.1
1089.37
1089.58
1088.61
1088.82
1088.1
1088.34
1087.76
1088.07
1087.5
1087.89
1088.21
1088.27
1087.93
1087.9
1088.9
1088.94
1088.56
1088.49
1087.52
1087.6
1087.76
1087.91
1087.71
1087.63
1087.5
1087.4
1088.3
1088.17
1088.06
1087.9
1087.32
1087.35
1087.14
1087.14
1087.26
1087.45
1087.13
1087.44
1087.48
1087.73
1087.3
1087.65
1087.08
1087.22
1086.98
1087.25
1086.93
1087.05
1086.85
1087.08
1089.51
1090.15
1090.75
1089.28
1090
1090.6
1089.43
1090.07
1090.68
1089.18
1089.9
1090.52
1089.3
1089.94
1090.56
1089.01
1089.77
1090.44
1090.57
1091.17
1091.83
1089.79
1090.42
1091.09
1089.35
1090.01
1090.69
1089.04
1089.7
1090.36
1088.83
1089.63
1090.36
1089.95
1090.61
1091.36
1089.22
1089.89
1090.64
1088.81
1089.52
1090.29
1088.62
1089.37
1090.15
1088.65
1089.48
1090.29
1087.26
1087.51
1088.21
1089.53
1087.38
1087.65
1088.38
1089.71
1087.2
1087.46
1088.17
1089.5
1087.28
1087.57
1088.3
1089.64
1087.14
1087.41
1088.09
1089.38
1087.11
1087.42
1088.15
1089.46
1087.13
1087.48
1088.26
1089.61
1087.06
1087.45
1088.26
1089.62
1086.98
1087.31
1088.02
1089.33
1087
1087.36
1088.01
1089.18
1087.09
1087.39
1088.03
1089.24
1087.13
1087.45
1088.05
1089.15
1086.89
1087.26
1088.02
1089.38
1086.89
1087.29
1087.97
1089.17
1086.8
1087.2
1087.99
1089.34
1086.8
1087.22
1087.93
1089.12
1087.28
1087.5
1088.14
1089.38
1087.44
1087.62
1088.17
1089.25
1087.26
1087.49
1088.12
1089.35
1087.43
1087.63
1088.17
1089.24
1087.24
1087.48
1088.09
1089.29
1087.4
1087.61
1088.16
1089.22
1087.24
1087.5
1088.08
1089.2
1087.37
1087.61
1088.14
1089.17
1087.25
1087.54
1088.09
1089.12
1087.7
1087.85
1088.33
1089.1
1087.98
1088.11
1088.61
1089.33
1087.67
1087.83
1088.32
1089.09
1087.95
1088.1
1088.6
1089.33
1087.61
1087.8
1088.3
1089.08
1087.9
1088.07
1088.59
1089.32
1087.53
1087.75
1088.27
1089.05
1087.82
1088.03
1088.56
1089.3
1087.42
1087.69
1088.23
1089.01
1087.73
1087.98
1088.54
1089.28
1087.21
1087.58
1088.17
1088.99
1087.49
1087.85
1088.45
1089.22
1087.31
1087.64
1088.2
1089
1087.61
1087.92
1088.5
1089.25
1087.12
1087.52
1088.14
1088.97
1087.38
1087.78
1088.41
1089.19
1087.03
1087.46
1088.11
1088.94
1087.28
1087.72
1088.37
1089.16
1091.56
1093.19
1094.6
1095.75
1096.63
1091.66
1093.28
1094.68
1095.83
1096.71
1091.54
1093.19
1094.59
1095.74
1096.63
1091.64
1093.27
1094.67
1095.82
1096.7
1091.52
1093.18
1094.59
1095.74
1096.63
1091.56
1093.2
1094.61
1095.76
1096.65
1091.61
1093.25
1094.65
1095.81
1096.7
1091.58
1093.23
1094.64
1095.79
1096.69
1091.51
1093.17
1094.58
1095.73
1096.62
1091.59
1093.29
1094.71
1095.86
1096.75
1091.52
1093.2
1094.61
1095.76
1096.65
1091.62
1093.32
1094.74
1095.89
1096.78
1091.5
1093.17
1094.58
1095.74
1096.63
1091.6
1093.31
1094.72
1095.88
1096.77
1091.48
1093.15
1094.57
1095.73
1096.62
1091.59
1093.31
1094.73
1095.88
1096.78
1091.57
1093.23
1094.64
1095.79
1096.67
1091.69
1093.38
1094.79
1095.93
1096.82
1091.56
1093.24
1094.64
1095.79
1096.68
1091.68
1093.38
1094.79
1095.94
1096.82
1091.57
1093.25
1094.66
1095.81
1096.7
1091.69
1093.39
1094.8
1095.95
1096.83
1091.6
1093.3
1094.72
1095.87
1096.75
1091.71
1093.41
1094.83
1095.97
1096.86
1091.67
1093.38
1094.8
1095.94
1096.83
1099.3
1099.58
1099.17
1099.46
1098.95
1099.27
1098.67
1099.04
1098.39
1098.82
1097.96
1098.45
1098.18
1098.66
1097.74
1098.22
1097.5
1097.94
1102.44
1105.89
1108.81
1111.09
1112.66
1102.38
1105.86
1108.82
1111.11
1112.7
1102.38
1105.86
1108.79
1111.08
1112.65
1102.33
1105.84
1108.8
1111.11
1112.7
1102.27
1105.8
1108.75
1111.05
1112.62
1102.23
1105.78
1108.76
1111.08
1112.67
1102.12
1105.71
1108.69
1111
1112.58
1102.09
1105.7
1108.7
1111.04
1112.63
1101.95
1105.6
1108.61
1110.94
1112.53
1101.95
1105.61
1108.64
1110.99
1112.59
1101.58
1105.32
1108.4
1110.77
1112.38
1101.61
1105.36
1108.45
1110.83
1112.45
1101.76