/*--------------------------------*- C++ -*----------------------------------*\
  =========                 |
  \\      /  F ield         | OpenFOAM: The Open Source CFD Toolbox
   \\    /   O peration     | Website:  https://openfoam.org
    \\  /    A nd           | Version:  13
     \\/     M anipulation  |
\*---------------------------------------------------------------------------*/
FoamFile
{
    format      ascii;
    class       volScalarField;
    location    "154.831886";
    object      T;
}
// * * * * * * * * * * * * * * * * * * * * * * * * * * * * * * * * * * * * * //

dimensions      [0 0 0 1 0 0 0];

internalField   nonuniform List<scalar> 
5712
(
1035.29
1035.14
1034.88
1034.64
1034.24
1034
1033.33
1033.14
1033.49
1033.27
1034.2
1033.97
1034.71
1034.5
1035.09
1034.93
1034.06
1033.75
1033.65
1033.23
1032.96
1032.57
1032.59
1032.09
1035.87
1036.81
1035.7
1036.58
1035.48
1036.38
1035.22
1036.06
1034.59
1035.07
1034.16
1034.76
1035.84
1035.33
1033.13
1032.38
1032.73
1032.17
1032.14
1031.51
1031.65
1031.18
1034.07
1033.28
1033.62
1033.02
1034.82
1034.05
1037.88
1038.5
1037.43
1038.08
1037.44
1038.23
1036.92
1037.64
1036.81
1037.88
1036.01
1037
1035.41
1036.38
1034.72
1035.71
1033.85
1033.72
1033.19
1033.13
1032.4
1032.22
1031.88
1031.71
1034.45
1034.65
1035.23
1035.28
1032.64
1032.65
1032.14
1032.25
1031.42
1031.27
1030.98
1030.9
1033.81
1034.14
1033.25
1033.72
1035.68
1036.88
1036.16
1037.51
1036.53
1037.76
1036.82
1038.23
1034.99
1036.14
1035.62
1036.94
1034.37
1035.51
1035.2
1036.5
1039.38
1040.77
1039.61
1040.99
1038.98
1040.26
1039.39
1040.71
1038.28
1039.27
1039.02
1040.1
1034.79
1033.07
1036.35
1037.53
1038.79
1033.29
1035.11
1036.97
1038.23
1039.61
1032.87
1034.5
1036.07
1037.55
1039
1042.05
1042.66
1042.78
1043.32
1041.4
1042.1
1042.34
1042.93
1040.28
1041.06
1041.6
1042.3
1033.67
1034.29
1035.66
1036.52
1037.49
1038.38
1038.96
1039.85
1040.9
1041.8
1033.15
1033.65
1034.97
1035.86
1036.67
1037.7
1038.37
1039.49
1040.52
1041.7
1034.16
1035.18
1033.43
1034.33
1032.38
1032.65
1031.73
1031.87
1035.24
1036.45
1035.95
1037.23
1032.81
1033.72
1032.42
1033.28
1031.21
1031.34
1030.84
1030.92
1034.59
1035.82
1034.19
1035.39
1037.29
1038.77
1039.84
1041.64
1037.87
1039.41
1040.22
1041.99
1036.76
1038.2
1039.48
1041.25
1036.26
1037.71
1038.95
1040.63
1042.81
1043.04
1043.52
1042.95
1043.01
1043.45
1042.39
1042.69
1043.2
1042.64
1042.73
1043.2
1041.54
1041.94
1042.52
1042.17
1042.32
1042.85
1035.05
1035.92
1036.86
1037.42
1038.18
1039
1039.22
1039.86
1040.58
1040.52
1041.05
1041.73
1041.79
1042.03
1042.65
1034.35
1035.32
1036.38
1037.05
1038.07
1039.12
1038.91
1039.8
1040.73
1040.41
1041.05
1041.87
1041.78
1042.1
1042.82
1031.01
1030.7
1030.73
1030.33
1031.89
1031.5
1031.57
1031.09
1030.79
1030.11
1030.72
1030.08
1030.61
1030
1030.48
1029.9
1030.04
1030.3
1029.88
1030.18
1029.89
1029.68
1030.02
1029.65
1030.71
1030.3
1029.86
1029.52
1029.62
1029.3
1029.55
1029.22
1029.42
1028.82
1029.54
1028.96
1029.35
1028.72
1029.38
1028.79
1029.28
1028.59
1029.14
1028.5
1029.03
1028.47
1028.75
1028.27
1030.26
1029.98
1029.91
1029.59
1031.19
1030.94
1030.77
1030.5
1029.3
1028.93
1029.61
1029.27
1029.56
1029.25
1029.21
1028.95
1030.37
1030.12
1029.98
1029.78
1029
1028.63
1028.68
1028.36
1028.79
1028.24
1028.48
1028.14
1029.04
1028.45
1028.78
1028.39
1028.55
1028.05
1028.22
1027.92
1028.27
1027.84
1027.99
1027.73
1029.42
1029.7
1028.87
1029.16
1029.43
1029.71
1028.83
1029.13
1029.43
1029.69
1028.78
1029.05
1030.51
1031.61
1029.82
1029.28
1028.7
1031.81
1030.73
1030.08
1029.55
1028.94
1031.41
1030.35
1029.58
1029.07
1028.64
1030.18
1030.85
1029.65
1030.3
1030.15
1030.79
1029.58
1030.2
1030.07
1030.67
1029.43
1030.02
1032.08
1032.59
1030.94
1031.45
1030.28
1030.81
1029.77
1030.32
1029.2
1029.75
1031.57
1031.86
1030.48
1030.78
1029.74
1030.1
1029.27
1029.71
1028.89
1029.45
1029.9
1029.99
1029.5
1029.47
1030.9
1030.95
1030.41
1030.31
1028.91
1029.03
1029.26
1029.47
1029.19
1029.07
1028.9
1028.74
1030.03
1029.84
1029.7
1029.47
1028.64
1028.67
1028.37
1028.38
1028.54
1028.82
1028.36
1028.8
1028.86
1029.22
1028.6
1029.11
1028.29
1028.49
1028.14
1028.53
1028.07
1028.24
1027.95
1028.29
1031.77
1032.68
1033.53
1031.44
1032.46
1033.32
1031.65
1032.57
1033.45
1031.29
1032.33
1033.22
1031.48
1032.38
1033.27
1031.05
1032.14
1033.1
1033.28
1034.15
1035.1
1032.16
1033.07
1034.04
1031.53
1032.48
1033.46
1031.09
1032.03
1032.99
1030.8
1031.94
1032.98
1032.41
1033.35
1034.42
1031.35
1032.31
1033.39
1030.76
1031.78
1032.89
1030.49
1031.57
1032.69
1030.54
1031.73
1032.88
1028.54
1028.9
1029.91
1031.8
1028.71
1029.1
1030.14
1032.05
1028.47
1028.84
1029.85
1031.76
1028.58
1028.99
1030.04
1031.96
1028.37
1028.77
1029.74
1031.59
1028.33
1028.78
1029.81
1031.71
1028.36
1028.86
1029.98
1031.91
1028.26
1028.82
1029.98
1031.93
1028.15
1028.62
1029.64
1031.51
1028.18
1028.69
1029.62
1031.3
1028.31
1028.73
1029.64
1031.38
1028.36
1028.82
1029.67
1031.26
1028.02
1028.55
1029.64
1031.58
1028.02
1028.58
1029.56
1031.29
1027.88
1028.46
1029.6
1031.53
1027.89
1028.49
1029.5
1031.22
1028.57
1028.88
1029.8
1031.58
1028.8
1029.07
1029.85
1031.4
1028.55
1028.87
1029.78
1031.54
1028.8
1029.07
1029.85
1031.38
1028.52
1028.87
1029.74
1031.46
1028.75
1029.05
1029.83
1031.35
1028.51
1028.89
1029.72
1031.33
1028.7
1029.04
1029.81
1031.28
1028.54
1028.95
1029.74
1031.21
1029.17
1029.39
1030.09
1031.19
1029.59
1029.77
1030.48
1031.52
1029.13
1029.36
1030.07
1031.17
1029.54
1029.75
1030.47
1031.51
1029.05
1029.32
1030.04
1031.15
1029.46
1029.71
1030.45
1031.49
1028.93
1029.25
1029.99
1031.11
1029.34
1029.65
1030.42
1031.47
1028.77
1029.17
1029.93
1031.06
1029.21
1029.58
1030.38
1031.44
1028.47
1029
1029.85
1031.02
1028.87
1029.39
1030.26
1031.36
1028.62
1029.08
1029.89
1031.04
1029.04
1029.49
1030.32
1031.4
1028.34
1028.92
1029.81
1031
1028.72
1029.3
1030.2
1031.31
1028.22
1028.84
1029.76
1030.96
1028.57
1029.21
1030.14
1031.27
1034.7
1037.05
1039.06
1040.7
1041.97
1034.84
1037.17
1039.17
1040.82
1042.09
1034.68
1037.04
1039.05
1040.7
1041.97
1034.82
1037.15
1039.16
1040.81
1042.08
1034.65
1037.03
1039.04
1040.69
1041.96
1034.71
1037.06
1039.08
1040.72
1042
1034.77
1037.12
1039.14
1040.79
1042.06
1034.74
1037.1
1039.12
1040.77
1042.05
1034.63
1037.01
1039.04
1040.69
1041.96
1034.75
1037.19
1039.22
1040.87
1042.14
1034.66
1037.06
1039.08
1040.73
1042
1034.79
1037.23
1039.26
1040.91
1042.18
1034.63
1037.01
1039.04
1040.69
1041.97
1034.76
1037.21
1039.24
1040.89
1042.17
1034.59
1036.99
1039.02
1040.68
1041.95
1034.76
1037.21
1039.25
1040.9
1042.18
1034.72
1037.1
1039.12
1040.76
1042.04
1034.89
1037.31
1039.33
1040.97
1042.25
1034.71
1037.11
1039.13
1040.77
1042.04
1034.89
1037.31
1039.33
1040.98
1042.25
1034.72
1037.13
1039.15
1040.79
1042.07
1034.89
1037.32
1039.35
1040.99
1042.26
1034.77
1037.2
1039.23
1040.88
1042.15
1034.92
1037.36
1039.39
1041.03
1042.3
1034.87
1037.32
1039.34
1040.99
1042.26
1045.78
1046.19
1045.61
1046.02
1045.29
1045.74
1044.88
1045.42
1044.49
1045.1
1043.87
1044.58
1044.19
1044.88
1043.55
1044.24
1043.22
1043.85
1050.28
1055.24
1059.42
1062.69
1064.93
1050.21
1055.2
1059.43
1062.72
1065
1050.21
1055.2
1059.39
1062.67
1064.91
1050.14
1055.17
1059.4
1062.71
1064.98
1050.05
1055.11
1059.33
1062.62
1064.87
1049.99
1055.08
1059.34
1062.67
1064.95
1049.84
1054.98
1059.25
1062.56
1064.82
1049.79
1054.97
1059.27
1062.61
1064.9
1049.59
1054.82
1059.13
1062.47
1064.74
1049.58
1054.83
1059.17
1062.53
1064.83
1049.05
1054.42
1058.83
1062.23
1064.53
1049.11
1054.47
1058.9
1062.32
1064.63
1049.32
1054.62
1058.99
1062.36
1064.64
1049.36
1054.67
1059.05
1062.44
1064.75
1048.79
1054.21
1058.67
1062.09
1064.4
1048.82
1054.25
1058.72
1062.17
1064.49
1048.51
1053.99
1058.49
1061.95
1064.27
1048.5
1054.01
1058.52
1062
1064.35
1030.08
1030.71
1031.22
1030.5
1031.35
1031.26
1031.24
1031.11
1031.45
1031.28
1032.29
1032.09
1032.71
1032.49
1032.08
1031.89
1031.83
1031.7
1031.77
1031.67
1030.51
1030.31
1031.95
1032.63
1032.87
1032.92
1032.29
1032.19
1033.01
1031.99
1033.7
1034.77
1032.12
1032.46
1033.27
1032.31
1032.7
1032.74
1031.49
1031.36
1031.76
1031.59
1031.41
1031.22
1031.38
1031.64
1032.56
1032.37
1032.07
1031.88
1030.79
1030.51
1030.93
1030.69
1030.94
1031.04
1031.45
1032.04
1031.45
1029.4
1028.82
1028.56
1028.57
1028.86
1029.49
1029.02
1028.8
1028.86
1029.24
1031.41
1031.16
1031.13
1031.34
1031.8
1032.11
1031.88
1031.88
1032.11
1032.57
1032.35
1032.11
1032.09
1032.31
1032.77
1032.41
1032.18
1032.17
1032.4
1032.87
1031.77
1031.52
1031.5
1031.71
1032.17
1030.97
1030.22
1029.82
1029.73
1029.93
1031.71
1030.91
1030.49
1030.39
1030.63
1031.13
1030.58
1030.28
1030.28
1030.62
1032.51
1031.73
1031.35
1031.29
1031.58
1033.6
1032.81
1032.41
1032.35
1032.65
1031.45
1031.05
1030.89
1031
1031.4
1031.67
1031.17
1030.92
1030.96
1031.32
1032.51
1032.03
1031.79
1031.84
1032.22
1031.7
1031.35
1031.23
1031.37
1031.79
1032.04
1031.65
1031.49
1031.6
1032
1032.13
1031.8
1031.69
1031.83
1032.26
1030.38
1029.74
1029.41
1029.36
1029.61
1030.61
1030.15
1029.92
1029.98
1030.35
1031.13
1030.78
1030.64
1030.77
1031.19
1030.99
1030.66
1030.56
1030.72
1031.15
1030.76
1030.38
1030.23
1030.35
1030.76
1030.6
1030.27
1030.16
1030.3
1030.73
1030.81
1030.52
1030.46
1030.64
1031.09
1031.08
1030.79
1030.73
1030.91
1031.36
1032
1031.72
1031.66
1031.84
1032.29
1031.82
1031.56
1031.53
1031.73
1032.18
1031.48
1031.17
1031.08
1031.24
1031.67
1031.31
1031.02
1030.95
1031.13
1031.57
1029.72
1029.12
1028.85
1028.84
1029.11
1029.75
1029.3
1029.1
1029.17
1029.56
1030.05
1029.52
1029.26
1029.27
1029.58
1030.02
1029.63
1029.47
1029.58
1029.99
1030.31
1029.95
1029.82
1029.96
1030.37
1030.31
1029.86
1029.65
1029.72
1030.1
1030.87
1030.58
1030.51
1030.68
1031.13
1031.49
1031.23
1031.19
1031.39
1031.84
1030.86
1030.54
1030.45
1030.61
1031.05
1030.59
1030.91
1030.62
1030.98
1029.77
1030.14
1029.75
1030.08
1030.65
1030.69
1030.99
1030.93
1029.78
1029.79
1030.12
1030.02
1031.46
1032.31
1031.75
1032.56
1031.47
1032.23
1031.8
1032.55
1031.82
1031.52
1031.64
1031.45
1032.12
1032.42
1031.42
1031.78
1031.26
1031.66
1030.57
1030.95
1030.35
1030.72
1032.23
1032.62
1031.99
1032.44
1032.84
1033.32
1033.07
1033.73
1033.29
1033.91
1033.02
1033.81
1033.3
1034
1032.89
1033.96
1033.08
1034.03
1033.47
1034.45
1034.03
1035.02
1030.96
1031.17
1031.12
1031.36
1029.86
1029.93
1030.04
1030.1
1032.15
1032.78
1032.01
1032.57
1031.38
1031.6
1031.73
1031.9
1030.3
1030.31
1030.61
1030.58
1032.42
1033.03
1032.79
1033.35
1033.22
1034.41
1034.24
1035.6
1033.13
1034.41
1034.06
1035.5
1033.47
1034.61
1034.48
1035.8
1033.87
1034.99
1034.82
1036.11
1033.15
1033.56
1033.89
1034.53
1033.09
1033.42
1034
1034.62
1032.98
1033.16
1034.2
1034.71
1030.92
1029.79
1032.02
1033.19
1034.68
1029.75
1030.82
1031.93
1033.17
1034.95
1029.84
1031.05
1032.44
1033.96
1035.52
1034.21
1034.49
1036.2
1036.78
1033.91
1034.19
1036.08
1036.65
1033.45
1033.68
1035.93
1036.51
1029.77
1029.91
1030.91
1031.09
1032.11
1032.29
1033.54
1033.78
1036.12
1036.74
1029.84
1029.98
1031.17
1031.55
1032.69
1033.17
1034.44
1035.03
1036.81
1037.56
1031.48
1032.13
1031.65
1032.32
1029.96
1029.99
1030.1
1030.09
1033.36
1034.34
1033.14
1034.07
1031.79
1032.56
1032.08
1032.91
1030.27
1030.31
1030.53
1030.59
1033.51
1034.61
1033.83
1035.01
1035.4
1036.69
1038.01
1039.65
1035.07
1036.32
1037.54
1039.08
1035.66
1036.99
1038.4
1040.09
1035.89
1037.31
1038.61
1040.27
1034.57
1034.8
1036.36
1036.36
1034.28
1034.53
1036.28
1036.26
1033.85
1034.22
1036.2
1036.19
1030.21
1030.75
1031.42
1031.93
1032.58
1033.01
1034.01
1034.42
1036.33
1036.28
1030.28
1030.85
1032.05
1032.58
1033.61
1034
1035.18
1035.32
1036.78
1036.61
1028.39
1028.36
1028.72
1028.58
1029.01
1028.98
1029.36
1029.21
1027.94
1027.62
1028.26
1027.92
1027.96
1027.66
1028.3
1027.97
1028.24
1027.95
1028.2
1027.98
1027.73
1028
1028.89
1029.26
1029.52
1029.88
1028.65
1029.07
1028.52
1028.9
1028.39
1028.78
1027.42
1027.27
1027.71
1027.55
1027.43
1027.25
1027.73
1027.53
1027.46
1027.22
1027.69
1027.42
1028.04
1027.73
1028.38
1028
1028.24
1028.21
1028.4
1028.32
1028.95
1028.93
1029.12
1029.07
1027.92
1027.81
1027.78
1027.73
1028.63
1028.49
1028.91
1028.69
1029.36
1029.26
1029.65
1029.49
1028.14
1027.95
1028.39
1028.13
1027.57
1027.3
1027.51
1027.35
1027.44
1027.22
1027.44
1027.31
1027.77
1027.45
1027.63
1027.44
1028.01
1027.64
1027.79
1027.57
1027.29
1027.35
1027.16
1027.25
1027.32
1027.38
1027.17
1027.26
1027.39
1027.44
1027.19
1027.27
1028.18
1028.87
1027.73
1027.42
1027.23
1028.88
1028.22
1027.77
1027.46
1027.29
1028.86
1028.17
1027.7
1027.43
1027.31
1027.56
1027.94
1027.51
1027.92
1027.57
1027.91
1027.49
1027.88
1027.58
1027.89
1027.46
1027.82
1028.88
1029.02
1028.22
1028.4
1027.81
1028.04
1027.54
1027.81
1027.44
1027.76
1028.81
1028.85
1028.14
1028.21
1027.71
1027.85
1027.48
1027.71
1027.44
1027.76
1028.11
1028.05
1028.23
1028.11
1028.81
1028.7
1028.96
1028.76
1027.79
1027.8
1027.69
1027.76
1028.44
1028.26
1028.64
1028.47
1029.18
1028.93
1029.42
1029.17
1027.96
1027.94
1028.15
1028.14
1027.56
1027.72
1027.55
1027.85
1027.49
1027.69
1027.48
1027.81
1027.69
1027.83
1027.65
1027.96
1027.86
1028.02
1027.79
1028.11
1028.39
1028.82
1028.5
1029.01
1028.34
1028.79
1028.46
1028.99
1028.29
1028.79
1028.39
1029
1029.32
1029.86
1028.73
1029.29
1028.39
1028.96
1028.2
1028.78
1028.33
1029.06
1029.09
1029.71
1028.49
1029.15
1028.21
1028.91
1028.17
1028.9
1028.39
1029.21
1027.47
1028.18
1029.42
1031.46
1027.72
1028.43
1029.69
1031.74
1027.45
1028.16
1029.39
1031.45
1027.7
1028.39
1029.64
1031.68
1027.44
1028.14
1029.31
1031.31
1027.59
1028.28
1029.47
1031.47
1027.87
1028.53
1029.74
1031.75
1028.08
1028.7
1029.89
1031.87
1027.5
1028.19
1029.33
1031.3
1027.63
1028.32
1029.35
1031.1
1027.47
1028.16
1029.25
1031.12
1027.6
1028.31
1029.32
1031.01
1027.61
1028.27
1029.44
1031.44
1027.69
1028.35
1029.4
1031.16
1027.74
1028.37
1029.53
1031.48
1027.77
1028.41
1029.44
1031.17
1027.39
1028.09
1029.26
1031.21
1027.5
1028.21
1029.26
1030.99
1027.4
1028.11
1029.26
1031.19
1027.53
1028.23
1029.28
1030.99
1027.44
1028.14
1029.25
1031.13
1027.56
1028.26
1029.3
1030.98
1027.52
1028.22
1029.26
1031.03
1027.6
1028.31
1029.31
1030.95
1027.62
1028.33
1029.32
1030.92
1027.78
1028.48
1029.47
1030.72
1028.15
1028.84
1029.85
1031.02
1027.78
1028.48
1029.47
1030.72
1028.14
1028.84
1029.85
1031.02
1027.78
1028.49
1029.48
1030.73
1028.15
1028.86
1029.87
1031.03
1027.79
1028.5
1029.48
1030.73
1028.16
1028.87
1029.88
1031.04
1027.8
1028.52
1029.49
1030.72
1028.17
1028.9
1029.9
1031.06
1027.91
1028.62
1029.58
1030.8
1028.24
1028.97
1029.96
1031.12
1027.85
1028.57
1029.53
1030.76
1028.19
1028.92
1029.92
1031.08
1028
1028.69
1029.64
1030.86
1028.33
1029.04
1030.02
1031.16
1028.1
1028.76
1029.7
1030.91
1028.45
1029.12
1030.08
1031.22
1034.5
1036.93
1038.98
1040.65
1041.93
1034.66
1037.05
1039.1
1040.77
1042.05
1034.5
1036.93
1038.98
1040.65
1041.93
1034.65
1037.05
1039.1
1040.76
1042.04
1034.49
1036.93
1038.98
1040.65
1041.93
1034.58
1036.98
1039.02
1040.69
1041.97
1034.68
1037.06
1039.1
1040.76
1042.04
1034.7
1037.08
1039.11
1040.76
1042.04
1034.51
1036.94
1038.99
1040.65
1041.94
1034.64
1037.12
1039.18
1040.84
1042.12
1034.51
1036.97
1039.02
1040.69
1041.97
1034.66
1037.15
1039.21
1040.87
1042.15
1034.54
1036.96
1039.01
1040.67
1041.95
1034.69
1037.16
1039.21
1040.87
1042.15
1034.56
1036.97
1039.01
1040.67
1041.95
1034.73
1037.19
1039.24
1040.9
1042.17
1034.51
1036.98
1039.04
1040.71
1041.99
1034.68
1037.19
1039.25
1040.92
1042.2
1034.52
1036.99
1039.05
1040.72
1042
1034.68
1037.19
1039.26
1040.93
1042.21
1034.54
1037.02
1039.08
1040.75
1042.03
1034.7
1037.21
1039.28
1040.94
1042.23
1034.61
1037.11
1039.17
1040.84
1042.12
1034.75
1037.26
1039.32
1040.99
1042.27
1034.73
1037.23
1039.29
1040.95
1042.23
1040.44
1040.91
1040.51
1040.98
1040.65
1041.13
1040.88
1041.36
1041.25
1041.67
1042.21
1042.74
1041.78
1042.25
1042.57
1043.16
1042.9
1043.5
1046.37
1052.42
1057.31
1060.99
1063.44
1046.24
1052.35
1057.3
1061.01
1063.5
1046.43
1052.47
1057.34
1061.02
1063.46
1046.32
1052.41
1057.33
1061.05
1063.53
1046.55
1052.55
1057.39
1061.06
1063.5
1046.43
1052.49
1057.38
1061.09
1063.56
1046.74
1052.67
1057.49
1061.14
1063.56
1046.6
1052.6
1057.47
1061.16
1063.62
1047
1052.85
1057.62
1061.24
1063.65
1046.82
1052.75
1057.57
1061.24
1063.69
1047.63
1053.29
1057.94
1061.5
1063.88
1047.51
1053.22
1057.92
1061.51
1063.92
1047.31
1053.06
1057.77
1061.36
1063.76
1047.14
1052.96
1057.72
1061.36
1063.79
1047.93
1053.53
1058.12
1061.65
1064
1047.87
1053.49
1058.12
1061.67
1064.05
1048.23
1053.76
1058.31
1061.8
1064.14
1048.19
1053.76
1058.33
1061.84
1064.2
1029.61
1030.2
1029.8
1029.17
1028.4
1028.72
1028.39
1028.76
1029.01
1029.39
1029.01
1029.34
1035.16
1035.06
1034.82
1034.42
1033.89
1033.25
1035.21
1035.11
1034.88
1034.51
1034.03
1033.46
1035.42
1035.81
1035.31
1035.68
1035.03
1035.37
1034.59
1034.85
1033.99
1034.19
1033.29
1033.52
1032.57
1031.93
1031.38
1030.94
1030.61
1030.36
1032.85
1032.27
1031.75
1031.31
1030.97
1030.73
1034.68
1034.49
1034.53
1034.78
1035.26
1034.58
1034.39
1034.43
1034.68
1035.16
1034.33
1034.14
1034.17
1034.42
1034.9
1033.94
1033.74
1033.77
1034.02
1034.49
1033.4
1033.2
1033.22
1033.46
1033.94
1032.75
1032.54
1032.55
1032.79
1033.26
1034.73
1034.54
1034.57
1034.82
1035.3
1034.63
1034.44
1034.47
1034.73
1035.2
1034.4
1034.2
1034.23
1034.48
1034.96
1034.02
1033.82
1033.85
1034.1
1034.57
1033.53
1033.33
1033.34
1033.59
1034.06
1032.95
1032.74
1032.75
1032.98
1033.46
1034.94
1034.76
1034.79
1035.04
1035.52
1035.33
1035.15
1035.18
1035.43
1035.91
1034.83
1034.64
1034.67
1034.93
1035.41
1035.21
1035.02
1035.05
1035.3
1035.78
1034.55
1034.36
1034.39
1034.64
1035.12
1034.89
1034.7
1034.73
1034.98
1035.46
1034.1
1033.9
1033.93
1034.18
1034.66
1034.37
1034.17
1034.2
1034.45
1034.92
1033.49
1033.29
1033.31
1033.56
1034.03
1033.7
1033.5
1033.51
1033.76
1034.23
1032.79
1032.58
1032.58
1032.82
1033.29
1033.01
1032.8
1032.8
1033.04
1033.51
1032.06
1031.83
1031.82
1032.05
1032.51
1031.39
1031.14
1031.11
1031.32
1031.78
1030.82
1030.53
1030.48
1030.66
1031.11
1030.33
1030.01
1029.91
1030.07
1030.5
1029.96
1029.59
1029.46
1029.59
1030
1029.68
1029.29
1029.14
1029.26
1029.67
1032.34
1032.11
1032.1
1032.33
1032.79
1031.74
1031.49
1031.46
1031.67
1032.13
1031.19
1030.92
1030.87
1031.06
1031.51
1030.73
1030.43
1030.35
1030.53
1030.97
1030.37
1030.04
1029.94
1030.1
1030.53
1030.11
1029.77
1029.67
1029.81
1030.24
1035.11
1034.91
1034.55
1034.05
1033.41
1032.66
1035.15
1034.96
1034.62
1034.14
1033.56
1032.9
1035.37
1035.75
1035.15
1035.51
1034.76
1035.08
1034.2
1034.44
1033.48
1033.66
1032.66
1032.84
1031.88
1031.17
1030.61
1030.26
1030.13
1030.19
1032.22
1031.6
1031.1
1030.76
1030.6
1030.6
1034.63
1034.44
1034.47
1034.73
1035.21
1034.43
1034.24
1034.27
1034.52
1035
1034.07
1033.88
1033.91
1034.16
1034.64
1033.57
1033.37
1033.4
1033.65
1034.13
1032.92
1032.72
1032.75
1033
1033.48
1032.17
1031.96
1031.98
1032.22
1032.7
1034.67
1034.49
1034.52
1034.77
1035.25
1034.48
1034.29
1034.32
1034.57
1035.05
1034.13
1033.94
1033.97
1034.23
1034.71
1033.66
1033.46
1033.49
1033.74
1034.22
1033.07
1032.87
1032.89
1033.14
1033.62
1032.4
1032.19
1032.21
1032.45
1032.93
1034.89
1034.7
1034.73
1034.99
1035.47
1035.28
1035.09
1035.12
1035.38
1035.86
1034.67
1034.48
1034.51
1034.77
1035.25
1035.03
1034.84
1034.88
1035.13
1035.61
1034.28
1034.08
1034.12
1034.37
1034.85
1034.6
1034.41
1034.44
1034.69
1035.17
1033.71
1033.52
1033.55
1033.8
1034.28
1033.96
1033.76
1033.79
1034.05
1034.52
1032.99
1032.79
1032.82
1033.07
1033.55
1033.17
1032.97
1033
1033.25
1033.73
1032.16
1031.96
1031.97
1032.22
1032.7
1032.34
1032.13
1032.15
1032.39
1032.87
1031.37
1031.15
1031.16
1031.39
1031.87
1030.64
1030.41
1030.39
1030.62
1031.09
1030.06
1029.8
1029.76
1029.96
1030.42
1029.67
1029.37
1029.29
1029.47
1029.91
1029.49
1029.15
1029.03
1029.18
1029.6
1029.51
1029.13
1028.99
1029.11
1029.52
1031.71
1031.49
1031.49
1031.73
1032.2
1031.08
1030.84
1030.82
1031.05
1031.52
1030.55
1030.29
1030.26
1030.47
1030.92
1030.19
1029.9
1029.84
1030.03
1030.48
1030
1029.69
1029.6
1029.77
1030.2
1029.98
1029.65
1029.54
1029.7
1030.13
1030.22
1030.08
1031.08
1031.88
1031.93
1032.12
1031.38
1029.74
1029.97
1029.78
1030.49
1030.31
1030.23
1030.7
1030.81
1031.11
1029.67
1029.66
1030.2
1030.25
1029.92
1030
1030.43
1030.53
1031.26
1031.26
1030.66
1030.65
1029.92
1029.87
1029.63
1029.79
1029.86
1029.65
1030.37
1031.01
1030.23
1029.12
1028.57
1028.33
1028.36
1028.66
1029.27
1028.81
1028.61
1028.68
1029.06
1030.55
1030.32
1030.31
1030.54
1031.01
1031.37
1031.15
1031.16
1031.4
1031.87
1031.42
1031.2
1031.2
1031.44
1031.91
1031.61
1031.4
1031.41
1031.64
1032.12
1030.87
1030.64
1030.64
1030.87
1031.34
1028.77
1028.27
1028.06
1028.11
1028.41
1029.04
1028.56
1028.37
1028.44
1028.77
1029.08
1028.68
1028.53
1028.64
1029.05
1029.66
1029.23
1029.08
1029.19
1029.57
1029.73
1029.43
1029.36
1029.54
1029.98
1029.59
1029.25
1029.14
1029.29
1029.71
1030.14
1029.87
1029.82
1030.02
1030.47
1030.24
1029.96
1029.9
1030.08
1030.53
1030.56
1030.29
1030.25
1030.45
1030.91
1028.72
1028.23
1028.03
1028.09
1028.4
1029
1028.64
1028.51
1028.64
1029.06
1029.63
1029.34
1029.28
1029.47
1029.92
1029.69
1029.41
1029.36
1029.56
1030.02
1029.32
1029.01
1028.94
1029.11
1029.55
1029.43
1029.14
1029.07
1029.26
1029.71
1029.88
1029.61
1029.58
1029.78
1030.24
1029.99
1029.74
1029.71
1029.92
1030.39
1030.73
1030.49
1030.47
1030.69
1031.15
1030.73
1030.5
1030.49
1030.71
1031.18
1030.12
1029.86
1029.82
1030.03
1030.49
1030.11
1029.86
1029.83
1030.04
1030.51
1028.9
1028.38
1028.16
1028.21
1028.52
1029.13
1028.72
1028.55
1028.65
1029.05
1028.82
1028.38
1028.2
1028.28
1028.64
1029.15
1028.8
1028.68
1028.83
1029.25
1029.26
1028.95
1028.86
1029.03
1029.47
1028.98
1028.61
1028.47
1028.6
1029.02
1029.82
1029.56
1029.52
1029.73
1030.19
1030.48
1030.24
1030.23
1030.45
1030.92
1029.67
1029.4
1029.35
1029.55
1030.01
1030.48
1030.04
1029.86
1029.95
1030.25
1030.85
1030.49
1030.53
1029.65
1029.63
1030.57
1030.64
1029.67
1029.7
1031.4
1032.34
1031.4
1032.25
1031.49
1031.44
1032.1
1030.47
1030.51
1029.62
1029.6
1030.55
1030.62
1029.65
1029.69
1031.45
1032.45
1031.45
1032.34
1031.53
1031.46
1032.17
1030.49
1030.53
1029.61
1029.59
1030.58
1030.64
1029.65
1029.7
1031.5
1032.71
1031.51
1032.56
1031.58
1031.5
1032.35
1030.65
1030.7
1029.76
1029.73
1030.74
1030.82
1029.79
1029.85
1031.74
1033.01
1031.73
1032.85
1031.79
1031.7
1032.6
1030.95
1030.99
1030.05
1030.02
1031.03
1031.12
1030.08
1030.14
1032.03
1033.22
1032.02
1033.09
1032.06
1031.99
1032.85
1031.46
1031.5
1030.58
1030.56
1031.53
1031.61
1030.61
1030.66
1032.49
1033.59
1032.46
1033.47
1032.5
1032.42
1033.22
1028.28
1028.27
1028.89
1028.89
1028.28
1028.29
1028.9
1028.91
1027.83
1027.48
1027.85
1027.54
1027.85
1027.91
1027.64
1028.24
1028.24
1028.85
1028.85
1028.26
1028.28
1028.87
1028.89
1027.77
1027.48
1027.8
1027.55
1027.83
1027.9
1027.66
1028.22
1028.23
1028.84
1028.83
1028.27
1028.3
1028.87
1028.9
1027.8
1027.6
1027.84
1027.66
1027.89
1027.97
1027.76
1028.37
1028.38
1028.98
1028.97
1028.43
1028.47
1029.02
1029.05
1027.99
1027.87
1028.03
1027.92
1028.1
1028.19
1028.02
1028.67
1028.69
1029.28
1029.26
1028.75
1028.81
1029.32
1029.35
1028.33
1028.26
1028.38
1028.31
1028.45
1028.55
1028.38
1029.24
1029.25
1029.83
1029.81
1029.31
1029.36
1029.86
1029.89
1028.9
1028.77
1028.94
1028.82
1029
1029.09
1028.9
1035.32
1035.18
1034.88
1034.64
1034.24
1034
1033.34
1033.14
1033.5
1033.27
1034.21
1033.98
1034.72
1034.5
1035.13
1034.97
1034.06
1033.76
1033.65
1033.23
1032.97
1032.57
1032.59
1032.09
1035.89
1036.82
1035.73
1036.6
1035.48
1036.38
1035.22
1036.07
1034.6
1035.07
1034.16
1034.76
1035.85
1035.33
1033.13
1032.38
1032.73
1032.17
1032.14
1031.51
1031.66
1031.18
1034.07
1033.28
1033.62
1033.02
1034.82
1034.05
1037.89
1038.52
1037.45
1038.1
1037.44
1038.23
1036.92
1037.64
1036.81
1037.88
1036.02
1037
1035.41
1036.38
1034.72
1035.71
1033.85
1033.72
1033.19
1033.13
1032.4
1032.22
1031.88
1031.71
1034.45
1034.66
1035.23
1035.28
1032.64
1032.65
1032.14
1032.25
1031.42
1031.27
1030.98
1030.9
1033.82
1034.14
1033.25
1033.72
1035.68
1036.88
1036.16
1037.51
1036.53
1037.76
1036.82
1038.23
1034.99
1036.14
1035.62
1036.94
1034.37
1035.51
1035.2
1036.5
1039.4
1040.79
1039.62
1041.01
1038.98
1040.26
1039.39
1040.71
1038.29
1039.27
1039.02
1040.1
1034.79
1033.07
1036.35
1037.53
1038.79
1033.3
1035.11
1036.97
1038.23
1039.61
1032.87
1034.5
1036.07
1037.56
1039
1042.07
1042.68
1042.79
1043.33
1041.4
1042.1
1042.34
1042.93
1040.28
1041.06
1041.6
1042.3
1033.67
1034.29
1035.66
1036.52
1037.49
1038.38
1038.96
1039.85
1040.9
1041.81
1033.15
1033.65
1034.97
1035.87
1036.68
1037.7
1038.37
1039.49
1040.52
1041.7
1034.16
1035.18
1033.43
1034.33
1032.38
1032.65
1031.73
1031.87
1035.24
1036.45
1035.95
1037.24
1032.81
1033.72
1032.42
1033.28
1031.21
1031.34
1030.84
1030.93
1034.59
1035.82
1034.19
1035.39
1037.29
1038.77
1039.84
1041.65
1037.87
1039.42
1040.22
1041.99
1036.76
1038.2
1039.48
1041.25
1036.26
1037.71
1038.95
1040.63
1042.83
1043.05
1043.54
1042.96
1043.02
1043.46
1042.39
1042.69
1043.2
1042.64
1042.73
1043.2
1041.54
1041.94
1042.52
1042.17
1042.32
1042.85
1035.05
1035.92
1036.86
1037.42
1038.18
1039
1039.22
1039.86
1040.58
1040.52
1041.05
1041.73
1041.79
1042.03
1042.65
1034.35
1035.33
1036.38
1037.05
1038.07
1039.12
1038.91
1039.8
1040.73
1040.41
1041.06
1041.87
1041.78
1042.1
1042.82
1031.01
1030.7
1030.74
1030.33
1031.89
1031.5
1031.57
1031.09
1030.8
1030.12
1030.73
1030.09
1030.61
1030
1030.48
1029.9
1030.04
1030.3
1029.88
1030.19
1029.89
1029.68
1030.02
1029.65
1030.71
1030.3
1029.86
1029.52
1029.62
1029.3
1029.55
1029.22
1029.43
1028.82
1029.55
1028.97
1029.35
1028.72
1029.38
1028.79
1029.28
1028.59
1029.14
1028.5
1029.03
1028.47
1028.75
1028.27
1030.26
1029.98
1029.91
1029.59
1031.19
1030.95
1030.77
1030.5
1029.3
1028.93
1029.61
1029.27
1029.56
1029.25
1029.21
1028.95
1030.37
1030.12
1029.98
1029.78
1029
1028.63
1028.68
1028.36
1028.79
1028.24
1028.48
1028.14
1029.04
1028.45
1028.78
1028.39
1028.55
1028.05
1028.22
1027.92
1028.27
1027.85
1027.99
1027.74
1029.43
1029.7
1028.87
1029.16
1029.43
1029.71
1028.83
1029.13
1029.43
1029.69
1028.78
1029.05
1030.51
1031.61
1029.82
1029.28
1028.7
1031.82
1030.73
1030.08
1029.55
1028.94
1031.41
1030.35
1029.59
1029.07
1028.64
1030.18
1030.85
1029.65
1030.3
1030.15
1030.79
1029.58
1030.2
1030.07
1030.67
1029.43
1030.02
1032.08
1032.59
1030.94
1031.45
1030.28
1030.81
1029.77
1030.32
1029.2
1029.76
1031.57
1031.86
1030.48
1030.78
1029.74
1030.1
1029.27
1029.71
1028.89
1029.45
1029.91
1029.99
1029.5
1029.47
1030.9
1030.95
1030.41
1030.31
1028.91
1029.03
1029.26
1029.47
1029.2
1029.07
1028.9
1028.74
1030.03
1029.84
1029.7
1029.47
1028.64
1028.67
1028.37
1028.38
1028.54
1028.82
1028.36
1028.8
1028.86
1029.22
1028.6
1029.11
1028.29
1028.49
1028.14
1028.53
1028.07
1028.24
1027.96
1028.29
1031.77
1032.68
1033.54
1031.44
1032.47
1033.33
1031.65
1032.57
1033.45
1031.29
1032.33
1033.22
1031.48
1032.38
1033.27
1031.05
1032.14
1033.1
1033.28
1034.15
1035.1
1032.16
1033.07
1034.04
1031.54
1032.48
1033.46
1031.09
1032.04
1032.99
1030.8
1031.94
1032.98
1032.41
1033.35
1034.42
1031.35
1032.31
1033.39
1030.76
1031.79
1032.89
1030.49
1031.57
1032.69
1030.54
1031.73
1032.88
1028.54
1028.9
1029.91
1031.8
1028.72
1029.1
1030.15
1032.05
1028.47
1028.84
1029.85
1031.76
1028.58
1028.99
1030.04
1031.96
1028.37
1028.77
1029.74
1031.59
1028.33
1028.78
1029.81
1031.7
1028.36
1028.86
1029.98
1031.91
1028.26
1028.82
1029.98
1031.93
1028.15
1028.62
1029.64
1031.51
1028.18
1028.69
1029.62
1031.3
1028.31
1028.73
1029.64
1031.38
1028.36
1028.82
1029.67
1031.26
1028.02
1028.55
1029.64
1031.58
1028.02
1028.58
1029.56
1031.29
1027.88
1028.46
1029.6
1031.53
1027.89
1028.49
1029.5
1031.22
1028.57
1028.88
1029.8
1031.58
1028.8
1029.07
1029.85
1031.4
1028.55
1028.87
1029.78
1031.54
1028.8
1029.07
1029.85
1031.38
1028.52
1028.87
1029.74
1031.46
1028.75
1029.05
1029.83
1031.35
1028.51
1028.89
1029.72
1031.33
1028.7
1029.04
1029.81
1031.28
1028.54
1028.95
1029.74
1031.21
1029.17
1029.39
1030.08
1031.19
1029.58
1029.77
1030.48
1031.52
1029.13
1029.36
1030.07
1031.17
1029.54
1029.75
1030.47
1031.51
1029.05
1029.32
1030.04
1031.15
1029.46
1029.71
1030.45
1031.49
1028.93
1029.25
1029.99
1031.11
1029.35
1029.65
1030.42
1031.47
1028.77
1029.17
1029.93
1031.06
1029.21
1029.58
1030.38
1031.44
1028.47
1029
1029.85
1031.02
1028.87
1029.39
1030.26
1031.36
1028.62
1029.08
1029.89
1031.04
1029.04
1029.49
1030.32
1031.4
1028.34
1028.92
1029.81
1031
1028.72
1029.3
1030.2
1031.31
1028.22
1028.84
1029.76
1030.96
1028.57
1029.21
1030.14
1031.27
1034.7
1037.05
1039.06
1040.7
1041.98
1034.85
1037.17
1039.18
1040.82
1042.09
1034.68
1037.04
1039.05
1040.7
1041.97
1034.82
1037.15
1039.16
1040.8
1042.08
1034.65
1037.03
1039.04
1040.69
1041.96
1034.71
1037.06
1039.08
1040.72
1042
1034.77
1037.12
1039.14
1040.79
1042.06
1034.74
1037.1
1039.12
1040.77
1042.05
1034.63
1037.01
1039.04
1040.68
1041.96
1034.75
1037.19
1039.22
1040.87
1042.14
1034.66
1037.06
1039.08
1040.73
1042
1034.79
1037.23
1039.26
1040.9
1042.18
1034.63
1037.01
1039.04
1040.69
1041.97
1034.76
1037.21
1039.24
1040.89
1042.17
1034.59
1036.99
1039.02
1040.68
1041.95
1034.76
1037.21
1039.25
1040.9
1042.18
1034.71
1037.1
1039.12
1040.76
1042.03
1034.89
1037.31
1039.33
1040.97
1042.24
1034.71
1037.11
1039.13
1040.77
1042.04
1034.89
1037.31
1039.33
1040.98
1042.25
1034.72
1037.13
1039.15
1040.79
1042.07
1034.89
1037.32
1039.35
1040.99
1042.26
1034.77
1037.2
1039.23
1040.87
1042.15
1034.92
1037.36
1039.39
1041.03
1042.3
1034.87
1037.31
1039.34
1040.99
1042.26
1045.79
1046.19
1045.61
1046.02
1045.29
1045.75
1044.89
1045.42
1044.49
1045.1
1043.87
1044.58
1044.19
1044.88
1043.55
1044.24
1043.22
1043.85
1050.29
1055.24
1059.42
1062.69
1064.93
1050.21
1055.2
1059.43
1062.72
1065
1050.21
1055.2
1059.39
1062.67
1064.91
1050.14
1055.17
1059.4
1062.71
1064.98
1050.05
1055.11
1059.33
1062.62
1064.87
1049.99
1055.08
1059.35
1062.67
1064.95
1049.84
1054.98
1059.25
1062.56
1064.82
1049.79
1054.97
1059.27
1062.61
1064.9
1049.59
1054.82
1059.13
1062.47
1064.74
1049.58
1054.83
1059.17
1062.53
1064.83
1049.06
1054.42
1058.83
1062.23
1064.53
1049.11
1054.47
1058.9
1062.32
1064.63
1049.32
1054.62