/*--------------------------------*- C++ -*----------------------------------*\
  =========                 |
  \\      /  F ield         | OpenFOAM: The Open Source CFD Toolbox
   \\    /   O peration     | Website:  https://openfoam.org
    \\  /    A nd           | Version:  13
     \\/     M anipulation  |
\*---------------------------------------------------------------------------*/
FoamFile
{
    format      ascii;
    class       volScalarField;
    location    "254.831886";
    object      T;
}
// * * * * * * * * * * * * * * * * * * * * * * * * * * * * * * * * * * * * * //

dimensions      [0 0 0 1 0 0 0];

internalField   nonuniform List<scalar> 
5712
(
1162.64
1162.57
1162.45
1162.34
1162.16
1162.04
1161.75
1161.66
1161.83
1161.72
1162.15
1162.04
1162.38
1162.28
1162.55
1162.48
1162.07
1161.93
1161.88
1161.68
1161.57
1161.39
1161.4
1161.16
1162.9
1163.32
1162.82
1163.22
1162.72
1163.12
1162.6
1162.98
1162.3
1162.53
1162.1
1162.38
1162.88
1162.64
1161.64
1161.28
1161.45
1161.18
1161.19
1160.89
1160.96
1160.73
1162.06
1161.7
1161.85
1161.57
1162.4
1162.04
1163.8
1164.09
1163.6
1163.9
1163.6
1163.96
1163.37
1163.7
1163.31
1163.8
1162.95
1163.4
1162.67
1163.11
1162.35
1162.8
1161.96
1161.9
1161.66
1161.63
1161.31
1161.23
1161.07
1160.98
1162.23
1162.32
1162.59
1162.61
1161.4
1161.4
1161.16
1161.21
1160.85
1160.78
1160.64
1160.6
1161.93
1162.08
1161.67
1161.88
1162.79
1163.33
1163
1163.61
1163.18
1163.74
1163.3
1163.94
1162.47
1163
1162.75
1163.35
1162.18
1162.7
1162.55
1163.14
1164.49
1165.12
1164.59
1165.21
1164.3
1164.88
1164.49
1165.08
1163.98
1164.43
1164.32
1164.81
1162.4
1161.62
1163.1
1163.63
1164.21
1161.73
1162.55
1163.39
1163.96
1164.58
1161.53
1162.26
1162.97
1163.64
1164.3
1165.7
1165.98
1166.02
1166.27
1165.4
1165.73
1165.82
1166.09
1164.89
1165.26
1165.48
1165.8
1161.91
1162.2
1162.81
1163.21
1163.63
1164.05
1164.29
1164.7
1165.16
1165.58
1161.66
1161.9
1162.48
1162.9
1163.25
1163.73
1164.02
1164.53
1164.98
1165.52
1162.11
1162.58
1161.77
1162.19
1161.3
1161.44
1161
1161.08
1162.58
1163.14
1162.91
1163.5
1161.48
1161.9
1161.3
1161.69
1160.76
1160.83
1160.58
1160.63
1162.28
1162.85
1162.09
1162.65
1163.51
1164.18
1164.65
1165.47
1163.78
1164.48
1164.83
1165.63
1163.26
1163.91
1164.48
1165.29
1163.03
1163.69
1164.24
1165
1166.06
1166.18
1166.41
1166.12
1166.16
1166.37
1165.87
1166.02
1166.26
1165.98
1166.03
1166.26
1165.48
1165.68
1165.96
1165.76
1165.85
1166.1
1162.56
1162.97
1163.41
1163.63
1163.99
1164.38
1164.44
1164.75
1165.09
1165.02
1165.28
1165.6
1165.59
1165.72
1166.02
1162.23
1162.7
1163.19
1163.46
1163.94
1164.43
1164.29
1164.71
1165.15
1164.96
1165.28
1165.66
1165.58
1165.75
1166.09
1160.69
1160.54
1160.56
1160.37
1161.09
1160.91
1160.94
1160.71
1160.61
1160.3
1160.57
1160.28
1160.52
1160.24
1160.45
1160.19
1160.25
1160.37
1160.17
1160.31
1160.19
1160.08
1160.22
1160.05
1160.53
1160.34
1160.16
1160
1160.05
1159.89
1160.02
1159.86
1159.98
1159.71
1160.03
1159.77
1159.94
1159.66
1159.96
1159.69
1159.91
1159.6
1159.84
1159.55
1159.79
1159.53
1159.65
1159.44
1160.34
1160.21
1160.17
1160.03
1160.76
1160.65
1160.56
1160.44
1159.9
1159.73
1160.05
1159.89
1160.01
1159.87
1159.84
1159.72
1160.37
1160.26
1160.19
1160.1
1159.76
1159.58
1159.6
1159.46
1159.67
1159.43
1159.53
1159.38
1159.79
1159.53
1159.67
1159.5
1159.55
1159.34
1159.4
1159.28
1159.42
1159.24
1159.29
1159.19
1159.99
1160.12
1159.73
1159.87
1159.99
1160.13
1159.72
1159.86
1159.98
1160.11
1159.69
1159.82
1160.47
1160.96
1160.16
1159.91
1159.65
1161.06
1160.57
1160.28
1160.04
1159.76
1160.87
1160.39
1160.04
1159.81
1159.62
1160.35
1160.67
1160.11
1160.41
1160.34
1160.64
1160.07
1160.37
1160.29
1160.58
1160
1160.28
1161.19
1161.43
1160.67
1160.92
1160.38
1160.63
1160.15
1160.41
1159.89
1160.15
1160.95
1161.09
1160.46
1160.6
1160.12
1160.29
1159.91
1160.12
1159.74
1160
1160.18
1160.23
1159.99
1159.99
1160.63
1160.67
1160.4
1160.37
1159.73
1159.79
1159.89
1160
1159.85
1159.8
1159.7
1159.64
1160.22
1160.15
1160.07
1159.97
1159.6
1159.62
1159.47
1159.48
1159.56
1159.7
1159.49
1159.7
1159.71
1159.89
1159.6
1159.84
1159.44
1159.54
1159.38
1159.57
1159.34
1159.42
1159.29
1159.46
1161.1
1161.53
1161.93
1160.95
1161.43
1161.83
1161.04
1161.48
1161.89
1160.88
1161.36
1161.79
1160.96
1161.38
1161.8
1160.76
1161.27
1161.72
1161.76
1162.17
1162.62
1161.26
1161.68
1162.14
1160.97
1161.42
1161.88
1160.77
1161.22
1161.67
1160.64
1161.18
1161.67
1161.35
1161.8
1162.3
1160.88
1161.33
1161.84
1160.61
1161.09
1161.62
1160.49
1161
1161.53
1160.52
1161.08
1161.62
1159.59
1159.77
1160.25
1161.14
1159.67
1159.86
1160.36
1161.26
1159.55
1159.74
1160.22
1161.13
1159.6
1159.81
1160.32
1161.22
1159.51
1159.71
1160.17
1161.04
1159.49
1159.71
1160.21
1161.1
1159.5
1159.75
1160.28
1161.2
1159.45
1159.73
1160.28
1161.2
1159.4
1159.64
1160.12
1161.01
1159.41
1159.67
1160.11
1160.91
1159.48
1159.69
1160.13
1160.95
1159.5
1159.73
1160.14
1160.89
1159.34
1159.6
1160.12
1161.04
1159.34
1159.62
1160.09
1160.9
1159.27
1159.56
1160.1
1161.02
1159.28
1159.57
1160.06
1160.87
1159.6
1159.76
1160.2
1161.04
1159.72
1159.85
1160.22
1160.96
1159.59
1159.76
1160.19
1161.02
1159.71
1159.85
1160.22
1160.95
1159.58
1159.75
1160.17
1160.98
1159.69
1159.84
1160.22
1160.93
1159.57
1159.76
1160.16
1160.92
1159.66
1159.84
1160.21
1160.9
1159.59
1159.79
1160.17
1160.87
1159.89
1160
1160.34
1160.86
1160.09
1160.18
1160.53
1161.02
1159.87
1159.99
1160.33
1160.85
1160.06
1160.17
1160.52
1161.01
1159.83
1159.97
1160.32
1160.84
1160.02
1160.15
1160.51
1161.01
1159.77
1159.94
1160.29
1160.82
1159.97
1160.13
1160.49
1160.99
1159.7
1159.9
1160.26
1160.8
1159.91
1160.09
1160.48
1160.98
1159.56
1159.82
1160.23
1160.78
1159.75
1160
1160.42
1160.94
1159.63
1159.86
1160.25
1160.79
1159.83
1160.05
1160.45
1160.96
1159.49
1159.78
1160.21
1160.77
1159.67
1159.96
1160.39
1160.92
1159.43
1159.74
1160.18
1160.75
1159.6
1159.91
1160.36
1160.9
1162.5
1163.6
1164.54
1165.3
1165.89
1162.57
1163.66
1164.59
1165.35
1165.94
1162.5
1163.6
1164.53
1165.3
1165.88
1162.56
1163.65
1164.58
1165.35
1165.93
1162.48
1163.59
1164.53
1165.29
1165.88
1162.51
1163.61
1164.54
1165.31
1165.9
1162.54
1163.63
1164.57
1165.34
1165.93
1162.52
1163.62
1164.56
1165.33
1165.92
1162.47
1163.58
1164.53
1165.29
1165.88
1162.53
1163.67
1164.61
1165.37
1165.96
1162.48
1163.6
1164.55
1165.31
1165.9
1162.54
1163.68
1164.63
1165.39
1165.98
1162.47
1163.58
1164.53
1165.29
1165.88
1162.53
1163.67
1164.62
1165.39
1165.98
1162.45
1163.57
1164.52
1165.29
1165.88
1162.53
1163.68
1164.62
1165.39
1165.98
1162.51
1163.63
1164.56
1165.33
1165.91
1162.59
1163.72
1164.66
1165.42
1166.01
1162.51
1163.63
1164.57
1165.33
1165.92
1162.59
1163.72
1164.66
1165.43
1166.01
1162.51
1163.64
1164.58
1165.34
1165.93
1162.59
1163.73
1164.67
1165.43
1166.02
1162.54
1163.67
1164.61
1165.38
1165.97
1162.61
1163.75
1164.69
1165.45
1166.04
1162.58
1163.72
1164.67
1165.43
1166.02
1167.35
1167.53
1167.27
1167.45
1167.12
1167.33
1166.94
1167.18
1166.75
1167.03
1166.46
1166.78
1166.61
1166.92
1166.31
1166.62
1166.16
1166.44
1169.34
1171.51
1173.34
1174.76
1175.73
1169.31
1171.49
1173.34
1174.78
1175.76
1169.3
1171.49
1173.33
1174.75
1175.73
1169.27
1171.48
1173.33
1174.77
1175.76
1169.23
1171.45
1173.3
1174.73
1175.71
1169.2
1171.44
1173.31
1174.75
1175.74
1169.13
1171.39
1173.26
1174.7
1175.68
1169.11
1171.39
1173.27
1174.73
1175.72
1169.01
1171.32
1173.21
1174.66
1175.65
1169.01
1171.33
1173.23
1174.69
1175.69
1168.77
1171.14
1173.07
1174.56
1175.55
1168.79
1171.16
1173.1
1174.59
1175.6
1168.89
1171.23
1173.14
1174.61
1175.61
1168.91
1171.25
1173.17
1174.65
1175.65
1168.64
1171.04
1173
1174.49
1175.5
1168.66
1171.06
1173.02
1174.53
1175.54
1168.51
1170.94
1172.92
1174.43
1175.44
1168.51
1170.95
1172.93
1174.45
1175.48
1160.25
1160.53
1160.77
1160.45
1160.86
1160.82
1160.8
1160.74
1160.9
1160.82
1161.28
1161.18
1161.47
1161.37
1161.19
1161.1
1161.08
1161.02
1161.05
1161.01
1160.46
1160.38
1161.2
1161.53
1161.64
1161.67
1161.37
1161.25
1161.63
1161.17
1161.96
1162.46
1161.25
1161.4
1161.79
1161.35
1161.53
1161.56
1160.92
1160.89
1161.09
1161.02
1160.92
1160.84
1160.93
1161.05
1161.48
1161.4
1161.24
1161.16
1160.6
1160.48
1160.67
1160.58
1160.7
1160.74
1160.96
1161.24
1160.95
1159.95
1159.69
1159.58
1159.59
1159.73
1160.01
1159.79
1159.69
1159.73
1159.91
1160.95
1160.84
1160.82
1160.92
1161.14
1161.29
1161.19
1161.18
1161.29
1161.51
1161.4
1161.29
1161.28
1161.38
1161.6
1161.43
1161.32
1161.32
1161.43
1161.65
1161.12
1161.01
1161
1161.1
1161.32
1160.69
1160.35
1160.17
1160.13
1160.23
1161.04
1160.67
1160.48
1160.44
1160.56
1160.78
1160.52
1160.39
1160.39
1160.56
1161.41
1161.06
1160.89
1160.87
1161.01
1161.93
1161.57
1161.39
1161.37
1161.51
1160.94
1160.76
1160.69
1160.74
1160.93
1161.04
1160.81
1160.69
1160.72
1160.89
1161.44
1161.21
1161.11
1161.13
1161.31
1161.07
1160.91
1160.85
1160.92
1161.12
1161.22
1161.04
1160.97
1161.03
1161.22
1161.27
1161.12
1161.07
1161.14
1161.34
1160.41
1160.12
1159.98
1159.96
1160.08
1160.54
1160.33
1160.22
1160.26
1160.44
1160.8
1160.63
1160.57
1160.64
1160.84
1160.73
1160.58
1160.54
1160.62
1160.82
1160.62
1160.44
1160.38
1160.44
1160.63
1160.55
1160.4
1160.35
1160.42
1160.62
1160.66
1160.53
1160.5
1160.59
1160.8
1160.79
1160.65
1160.63
1160.71
1160.93
1161.22
1161.09
1161.06
1161.15
1161.36
1161.14
1161.02
1161.01
1161.1
1161.32
1160.97
1160.82
1160.78
1160.86
1161.07
1160.89
1160.76
1160.73
1160.82
1161.03
1160.1
1159.83
1159.71
1159.71
1159.84
1160.13
1159.92
1159.84
1159.88
1160.06
1160.26
1160.02
1159.91
1159.92
1160.07
1160.27
1160.09
1160.02
1160.07
1160.27
1160.41
1160.24
1160.19
1160.25
1160.45
1160.4
1160.19
1160.1
1160.13
1160.32
1160.69
1160.55
1160.52
1160.6
1160.82
1160.99
1160.86
1160.85
1160.94
1161.16
1160.67
1160.53
1160.49
1160.57
1160.78
1160.44
1160.59
1160.45
1160.62
1160.07
1160.24
1160.06
1160.22
1160.47
1160.49
1160.63
1160.6
1160.07
1160.08
1160.24
1160.19
1160.84
1161.22
1160.97
1161.34
1160.84
1161.19
1161
1161.34
1161.01
1160.86
1160.93
1160.83
1161.14
1161.28
1160.83
1161
1160.76
1160.95
1160.45
1160.63
1160.34
1160.52
1161.2
1161.38
1161.09
1161.3
1161.48
1161.7
1161.58
1161.88
1161.68
1161.97
1161.55
1161.91
1161.69
1162.01
1161.49
1161.98
1161.58
1162.02
1161.77
1162.22
1162.03
1162.48
1160.61
1160.71
1160.69
1160.8
1160.11
1160.15
1160.2
1160.23
1161.15
1161.44
1161.09
1161.34
1160.81
1160.91
1160.97
1161.05
1160.32
1160.33
1160.47
1160.45
1161.28
1161.56
1161.46
1161.71
1161.64
1162.19
1162.1
1162.72
1161.59
1162.18
1162.02
1162.67
1161.76
1162.28
1162.22
1162.82
1161.95
1162.46
1162.37
1162.96
1161.6
1161.79
1161.94
1162.23
1161.58
1161.72
1161.99
1162.27
1161.52
1161.6
1162.09
1162.31
1160.59
1160.08
1161.09
1161.62
1162.3
1160.06
1160.55
1161.05
1161.61
1162.42
1160.1
1160.65
1161.28
1161.97
1162.68
1162.08
1162.21
1162.98
1163.24
1161.94
1162.07
1162.93
1163.19
1161.74
1161.84
1162.86
1163.13
1160.07
1160.14
1160.59
1160.67
1161.13
1161.21
1161.78
1161.89
1162.95
1163.23
1160.11
1160.18
1160.71
1160.88
1161.39
1161.62
1162.19
1162.46
1163.26
1163.6
1160.85
1161.15
1160.93
1161.24
1160.16
1160.19
1160.23
1160.24
1161.71
1162.16
1161.6
1162.03
1161
1161.36
1161.14
1161.52
1160.31
1160.34
1160.44
1160.48
1161.78
1162.28
1161.93
1162.47
1162.63
1163.21
1163.81
1164.55
1162.48
1163.04
1163.59
1164.29
1162.75
1163.35
1163.99
1164.75
1162.86
1163.5
1164.08
1164.83
1162.25
1162.36
1163.06
1163.08
1162.12
1162.24
1163.03
1163.03
1161.93
1162.1
1163
1163
1160.29
1160.54
1160.83
1161.07
1161.35
1161.56
1162
1162.2
1163.06
1163.05
1160.32
1160.6
1161.12
1161.38
1161.83
1162.02
1162.54
1162.62
1163.27
1163.2
1159.44
1159.43
1159.6
1159.53
1159.72
1159.71
1159.89
1159.82
1159.25
1159.1
1159.4
1159.25
1159.25
1159.12
1159.41
1159.27
1159.39
1159.25
1159.37
1159.26
1159.15
1159.28
1159.68
1159.86
1159.97
1160.14
1159.58
1159.78
1159.52
1159.7
1159.47
1159.65
1159.02
1158.96
1159.16
1159.09
1159.02
1158.95
1159.17
1159.08
1159.03
1158.94
1159.14
1159.03
1159.31
1159.18
1159.48
1159.31
1159.38
1159.37
1159.46
1159.42
1159.7
1159.69
1159.78
1159.76
1159.24
1159.19
1159.17
1159.15
1159.57
1159.5
1159.7
1159.6
1159.89
1159.85
1160.03
1159.96
1159.34
1159.26
1159.47
1159.35
1159.09
1158.98
1159.06
1159
1159.02
1158.94
1159.03
1158.98
1159.18
1159.05
1159.12
1159.05
1159.3
1159.14
1159.2
1159.11
1158.96
1158.98
1158.91
1158.95
1158.97
1159
1158.91
1158.95
1159
1159.02
1158.92
1158.96
1159.35
1159.66
1159.15
1159.01
1158.94
1159.67
1159.37
1159.17
1159.03
1158.97
1159.66
1159.35
1159.14
1159.02
1158.98
1159.08
1159.26
1159.07
1159.26
1159.08
1159.25
1159.06
1159.24
1159.09
1159.23
1159.05
1159.22
1159.67
1159.74
1159.37
1159.46
1159.19
1159.29
1159.07
1159.2
1159.04
1159.19
1159.64
1159.67
1159.34
1159.37
1159.15
1159.22
1159.05
1159.16
1159.04
1159.19
1159.33
1159.31
1159.39
1159.34
1159.64
1159.6
1159.72
1159.63
1159.19
1159.21
1159.14
1159.18
1159.48
1159.41
1159.58
1159.52
1159.82
1159.72
1159.93
1159.83
1159.27
1159.27
1159.36
1159.37
1159.09
1159.18
1159.1
1159.25
1159.06
1159.16
1159.06
1159.22
1159.16
1159.23
1159.15
1159.3
1159.24
1159.32
1159.22
1159.37
1159.47
1159.68
1159.54
1159.78
1159.45
1159.66
1159.52
1159.77
1159.42
1159.66
1159.48
1159.78
1159.88
1160.14
1159.62
1159.88
1159.47
1159.73
1159.39
1159.66
1159.46
1159.8
1159.78
1160.08
1159.51
1159.83
1159.39
1159.72
1159.38
1159.72
1159.49
1159.88
1159.07
1159.42
1160.01
1160.98
1159.19
1159.54
1160.14
1161.11
1159.06
1159.41
1160
1160.98
1159.18
1159.52
1160.12
1161.09
1159.06
1159.4
1159.96
1160.91
1159.13
1159.47
1160.04
1160.99
1159.26
1159.59
1160.17
1161.12
1159.36
1159.67
1160.24
1161.18
1159.09
1159.43
1159.97
1160.9
1159.15
1159.49
1159.98
1160.81
1159.07
1159.41
1159.94
1160.82
1159.14
1159.48
1159.97
1160.77
1159.14
1159.46
1160.03
1160.97
1159.18
1159.51
1160.01
1160.84
1159.21
1159.51
1160.07
1160.99
1159.22
1159.54
1160.03
1160.85
1159.03
1159.38
1159.94
1160.86
1159.09
1159.43
1159.94
1160.76
1159.04
1159.39
1159.94
1160.86
1159.1
1159.45
1159.95
1160.76
1159.06
1159.4
1159.94
1160.83
1159.11
1159.46
1159.96
1160.76
1159.09
1159.44
1159.94
1160.78
1159.14
1159.48
1159.97
1160.74
1159.15
1159.49
1159.97
1160.73
1159.22
1159.56
1160.04
1160.64
1159.39
1159.74
1160.22
1160.78
1159.22
1159.56
1160.04
1160.63
1159.39
1159.74
1160.22
1160.78
1159.22
1159.57
1160.04
1160.64
1159.39
1159.74
1160.23
1160.78
1159.22
1159.57
1160.05
1160.64
1159.4
1159.75
1160.24
1160.79
1159.23
1159.59
1160.05
1160.64
1159.41
1159.76
1160.25
1160.8
1159.29
1159.63
1160.1
1160.68
1159.44
1159.8
1160.28
1160.83
1159.25
1159.61
1160.07
1160.66
1159.42
1159.78
1160.26
1160.81
1159.33
1159.67
1160.13
1160.71
1159.49
1159.83
1160.3
1160.85
1159.38
1159.7
1160.15
1160.73
1159.54
1159.87
1160.33
1160.87
1162.41
1163.54
1164.5
1165.27
1165.87
1162.48
1163.6
1164.55
1165.33
1165.92
1162.41
1163.54
1164.5
1165.27
1165.87
1162.48
1163.6
1164.55
1165.33
1165.92
1162.4
1163.54
1164.5
1165.27
1165.87
1162.44
1163.57
1164.52
1165.29
1165.88
1162.49
1163.61
1164.56
1165.33
1165.92
1162.5
1163.61
1164.56
1165.33
1165.92
1162.41
1163.55
1164.5
1165.28
1165.87
1162.47
1163.63
1164.59
1165.36
1165.95
1162.41
1163.56
1164.52
1165.29
1165.88
1162.48
1163.65
1164.6
1165.38
1165.97
1162.43
1163.56
1164.51
1165.28
1165.87
1162.5
1163.65
1164.61
1165.38
1165.97
1162.44
1163.56
1164.51
1165.28
1165.87
1162.52
1163.67
1164.62
1165.39
1165.98
1162.41
1163.57
1164.53
1165.3
1165.89
1162.49
1163.66
1164.62
1165.4
1165.99
1162.42
1163.57
1164.53
1165.31
1165.9
1162.49
1163.67
1164.63
1165.4
1165.99
1162.43
1163.59
1164.55
1165.32
1165.91
1162.5
1163.68
1164.64
1165.41
1166
1162.46
1163.63
1164.59
1165.36
1165.95
1162.53
1163.7
1164.66
1165.43
1166.02
1162.51
1163.68
1164.64
1165.41
1166
1164.89
1165.1
1164.92
1165.13
1164.98
1165.2
1165.09
1165.3
1165.26
1165.44
1165.69
1165.93
1165.5
1165.71
1165.86
1166.12
1166.01
1166.28
1167.55
1170.23
1172.38
1174
1175.07
1167.49
1170.2
1172.38
1174.01
1175.1
1167.57
1170.25
1172.4
1174.01
1175.08
1167.52
1170.23
1172.4
1174.03
1175.11
1167.63
1170.29
1172.42
1174.03
1175.1
1167.57
1170.26
1172.42
1174.05
1175.13
1167.71
1170.34
1172.47
1174.07
1175.12
1167.65
1170.31
1172.46
1174.08
1175.15
1167.83
1170.42
1172.52
1174.11
1175.17
1167.75
1170.38
1172.51
1174.11
1175.18
1168.11
1170.62
1172.67
1174.23
1175.27
1168.06
1170.59
1172.66
1174.23
1175.28
1167.97
1170.52
1172.59
1174.17
1175.21
1167.89
1170.47
1172.57
1174.17
1175.23
1168.25
1170.73
1172.75
1174.29
1175.32
1168.22
1170.71
1172.75
1174.31
1175.34
1168.39
1170.84
1172.84
1174.36
1175.38
1168.37
1170.83
1172.84
1174.38
1175.41
1160.02
1160.29
1160.1
1159.82
1159.45
1159.6
1159.45
1159.62
1159.73
1159.91
1159.73
1159.88
1162.76
1162.71
1162.59
1162.4
1162.15
1161.84
1162.78
1162.73
1162.62
1162.44
1162.21
1161.93
1162.88
1163.06
1162.83
1163
1162.69
1162.85
1162.48
1162.6
1162.19
1162.28
1161.85
1161.96
1161.51
1161.2
1160.93
1160.71
1160.54
1160.42
1161.64
1161.36
1161.1
1160.89
1160.72
1160.61
1162.53
1162.44
1162.46
1162.58
1162.8
1162.48
1162.4
1162.41
1162.53
1162.75
1162.36
1162.27
1162.29
1162.41
1162.63
1162.17
1162.08
1162.09
1162.21
1162.44
1161.91
1161.82
1161.83
1161.94
1162.17
1161.6
1161.5
1161.51
1161.62
1161.84
1162.55
1162.46
1162.48
1162.6
1162.82
1162.51
1162.42
1162.43
1162.55
1162.77
1162.39
1162.3
1162.31
1162.43
1162.66
1162.21
1162.12
1162.13
1162.25
1162.47
1161.98
1161.88
1161.89
1162
1162.23
1161.7
1161.6
1161.6
1161.71
1161.94
1162.66
1162.57
1162.58
1162.7
1162.93
1162.84
1162.75
1162.77
1162.89
1163.11
1162.6
1162.51
1162.53
1162.65
1162.87
1162.78
1162.69
1162.7
1162.82
1163.05
1162.47
1162.38
1162.39
1162.51
1162.73
1162.62
1162.53
1162.55
1162.67
1162.89
1162.25
1162.16
1162.17
1162.29
1162.51
1162.37
1162.28
1162.29
1162.41
1162.63
1161.96
1161.86
1161.87
1161.99
1162.21
1162.05
1161.96
1161.97
1162.08
1162.3
1161.62
1161.52
1161.52
1161.64
1161.86
1161.72
1161.62
1161.62
1161.74
1161.96
1161.27
1161.16
1161.16
1161.26
1161.49
1160.94
1160.83
1160.81
1160.92
1161.13
1160.66
1160.53
1160.51
1160.6
1160.81
1160.43
1160.28
1160.23
1160.31
1160.52
1160.24
1160.07
1160.01
1160.08
1160.28
1160.1
1159.93
1159.86
1159.92
1160.12
1161.4
1161.29
1161.29
1161.4
1161.62
1161.11
1160.99
1160.98
1161.08
1161.3
1160.84
1160.72
1160.69
1160.79
1161
1160.62
1160.48
1160.45
1160.53
1160.74
1160.44
1160.29
1160.25
1160.32
1160.53
1160.32
1160.16
1160.11
1160.19
1160.39
1162.73
1162.63
1162.47
1162.23
1161.92
1161.56
1162.75
1162.66
1162.5
1162.27
1161.99
1161.67
1162.85
1163.03
1162.75
1162.92
1162.56
1162.71
1162.29
1162.41
1161.95
1162.04
1161.56
1161.64
1161.18
1160.84
1160.57
1160.39
1160.32
1160.34
1161.34
1161.04
1160.8
1160.63
1160.55
1160.54
1162.51
1162.42
1162.44
1162.56
1162.78
1162.41
1162.32
1162.34
1162.46
1162.68
1162.24
1162.15
1162.17
1162.29
1162.51
1162
1161.91
1161.92
1162.04
1162.27
1161.69
1161.6
1161.61
1161.73
1161.95
1161.33
1161.23
1161.24
1161.35
1161.58
1162.53
1162.44
1162.45
1162.57
1162.8
1162.43
1162.34
1162.36
1162.48
1162.7
1162.27
1162.18
1162.19
1162.31
1162.54
1162.04
1161.95
1161.96
1162.08
1162.31
1161.76
1161.66
1161.67
1161.79
1162.02
1161.44
1161.34
1161.35
1161.46
1161.69
1162.63
1162.54
1162.56
1162.68
1162.9
1162.81
1162.72
1162.74
1162.86
1163.08
1162.52
1162.44
1162.45
1162.57
1162.8
1162.7
1162.61
1162.62
1162.74
1162.97
1162.34
1162.25
1162.26
1162.38
1162.61
1162.49
1162.4
1162.41
1162.53
1162.76
1162.07
1161.98
1161.99
1162.11
1162.33
1162.18
1162.09
1162.1
1162.22
1162.45
1161.72
1161.63
1161.64
1161.76
1161.98
1161.81
1161.71
1161.72
1161.84
1162.07
1161.32
1161.23
1161.24
1161.35
1161.58
1161.41
1161.31
1161.32
1161.43
1161.66
1160.94
1160.84
1160.84
1160.96
1161.18
1160.59
1160.48
1160.48
1160.58
1160.8
1160.31
1160.18
1160.17
1160.27
1160.48
1160.11
1159.97
1159.94
1160.02
1160.24
1160.02
1159.86
1159.81
1159.88
1160.09
1160.03
1159.85
1159.79
1159.85
1160.05
1161.1
1161
1161
1161.11
1161.34
1160.8
1160.69
1160.68
1160.79
1161.01
1160.54
1160.42
1160.41
1160.51
1160.72
1160.36
1160.23
1160.2
1160.29
1160.51
1160.27
1160.12
1160.08
1160.17
1160.38
1160.26
1160.1
1160.06
1160.13
1160.34
1160.32
1160.28
1160.79
1161.18
1161.2
1161.29
1160.94
1160.09
1160.2
1160.13
1160.46
1160.41
1160.35
1160.6
1160.65
1160.79
1160.06
1160.09
1160.36
1160.38
1160.22
1160.27
1160.48
1160.53
1160.87
1160.88
1160.58
1160.58
1160.19
1160.18
1160.06
1160.16
1160.19
1160.08
1160.45
1160.76
1160.38
1159.82
1159.57
1159.47
1159.48
1159.63
1159.9
1159.69
1159.6
1159.64
1159.82
1160.55
1160.44
1160.44
1160.54
1160.77
1160.94
1160.84
1160.84
1160.96
1161.18
1160.96
1160.86
1160.86
1160.97
1161.2
1161.06
1160.96
1160.96
1161.07
1161.3
1160.7
1160.59
1160.59
1160.7
1160.93
1159.65
1159.42
1159.33
1159.36
1159.51
1159.77
1159.55
1159.47
1159.51
1159.68
1159.81
1159.63
1159.56
1159.62
1159.82
1160.07
1159.88
1159.81
1159.87
1160.06
1160.13
1159.99
1159.96
1160.05
1160.26
1160.06
1159.9
1159.85
1159.93
1160.13
1160.33
1160.21
1160.19
1160.28
1160.5
1160.38
1160.25
1160.22
1160.31
1160.53
1160.53
1160.41
1160.39
1160.49
1160.71
1159.63
1159.41
1159.32
1159.35
1159.51
1159.78
1159.61
1159.55
1159.62
1159.82
1160.09
1159.96
1159.93
1160.02
1160.24
1160.12
1159.99
1159.97
1160.07
1160.29
1159.94
1159.8
1159.76
1159.85
1160.06
1160
1159.86
1159.83
1159.92
1160.14
1160.22
1160.1
1160.08
1160.18
1160.4
1160.27
1160.15
1160.14
1160.25
1160.47
1160.62
1160.51
1160.5
1160.61
1160.83
1160.63
1160.52
1160.52
1160.62
1160.85
1160.33
1160.21
1160.19
1160.29
1160.51
1160.33
1160.21
1160.2
1160.3
1160.52
1159.72
1159.48
1159.39
1159.41
1159.56
1159.84
1159.65
1159.58
1159.63
1159.82
1159.68
1159.48
1159.4
1159.45
1159.62
1159.86
1159.7
1159.64
1159.72
1159.92
1159.91
1159.77
1159.73
1159.81
1160.03
1159.77
1159.6
1159.54
1159.6
1159.8
1160.19
1160.07
1160.05
1160.15
1160.37
1160.51
1160.4
1160.39
1160.5
1160.72
1160.12
1159.99
1159.97
1160.07
1160.28
1160.5
1160.29
1160.2
1160.24
1160.38
1160.65
1160.39
1160.41
1160.01
1160
1160.43
1160.46
1160.02
1160.04
1160.8
1161.23
1160.81
1161.19
1160.85
1160.82
1161.12
1160.38
1160.4
1159.99
1159.98
1160.42
1160.45
1160.01
1160.03
1160.83
1161.28
1160.83
1161.23
1160.87
1160.83
1161.15
1160.39
1160.41
1159.99
1159.98
1160.43
1160.46
1160.01
1160.03
1160.85
1161.4
1160.85
1161.33
1160.89
1160.85
1161.24
1160.46
1160.49
1160.06
1160.05
1160.51
1160.55
1160.08
1160.11
1160.96
1161.54
1160.95
1161.46
1160.98
1160.94
1161.35
1160.6
1160.62
1160.2
1160.18
1160.64
1160.69
1160.22
1160.25
1161.1
1161.64
1161.09
1161.58
1161.12
1161.08
1161.47
1160.85
1160.87
1160.45
1160.44
1160.88
1160.92
1160.47
1160.49
1161.31
1161.81
1161.3
1161.76
1161.32
1161.29
1161.65
1159.39
1159.39
1159.67
1159.66
1159.39
1159.4
1159.67
1159.68
1159.19
1159.04
1159.2
1159.06
1159.2
1159.23
1159.11
1159.37
1159.37
1159.65
1159.64
1159.38
1159.4
1159.66
1159.67
1159.16
1159.04
1159.18
1159.07
1159.19
1159.23
1159.11
1159.36
1159.37
1159.64
1159.64
1159.39
1159.4
1159.66
1159.68
1159.18
1159.09
1159.2
1159.12
1159.22
1159.25
1159.16
1159.43
1159.44
1159.71
1159.7
1159.46
1159.49
1159.73
1159.75
1159.26
1159.22
1159.29
1159.24
1159.32
1159.36
1159.29
1159.58
1159.59
1159.85
1159.84
1159.61
1159.65
1159.87
1159.89
1159.43
1159.41
1159.45
1159.43
1159.49
1159.53
1159.46
1159.84
1159.85
1160.11
1160.1
1159.88
1159.91
1160.13
1160.15
1159.7
1159.65
1159.72
1159.67
1159.75
1159.79
1159.71
1162.65
1162.59
1162.45
1162.34
1162.16
1162.05
1161.75
1161.66
1161.83
1161.72
1162.15
1162.04
1162.38
1162.28
1162.57
1162.49
1162.07
1161.93
1161.88
1161.68
1161.57
1161.39
1161.4
1161.16
1162.91
1163.33
1162.83
1163.23
1162.72
1163.12
1162.6
1162.98
1162.31
1162.53
1162.1
1162.38
1162.88
1162.64
1161.64
1161.29
1161.45
1161.18
1161.19
1160.89
1160.96
1160.73
1162.06
1161.7
1161.85
1161.57
1162.4
1162.05
1163.81
1164.1
1163.61
1163.91
1163.6
1163.96
1163.37
1163.7
1163.31
1163.8
1162.95
1163.4
1162.67
1163.11
1162.35
1162.8
1161.97
1161.9
1161.66
1161.63
1161.31
1161.23
1161.07
1160.98
1162.23
1162.32
1162.59
1162.61
1161.4
1161.4
1161.17
1161.21
1160.85
1160.78
1160.64
1160.6
1161.93
1162.08
1161.67
1161.88
1162.79
1163.33
1163
1163.61
1163.18
1163.74
1163.3
1163.94
1162.47
1163
1162.75
1163.35
1162.18
1162.7
1162.55
1163.14
1164.49
1165.12
1164.6
1165.22
1164.3
1164.88
1164.49
1165.09
1163.98
1164.43
1164.32
1164.81
1162.4
1161.62
1163.1
1163.63
1164.21
1161.73
1162.55
1163.39
1163.96
1164.58
1161.53
1162.26
1162.97
1163.64
1164.3
1165.7
1165.99
1166.02
1166.27
1165.4
1165.73
1165.82
1166.09
1164.89
1165.26
1165.48
1165.8
1161.91
1162.2
1162.81
1163.21
1163.63
1164.05
1164.29
1164.7
1165.16
1165.58
1161.66
1161.9
1162.48
1162.9
1163.25
1163.73
1164.02
1164.53
1164.98
1165.52
1162.11
1162.58
1161.77
1162.19
1161.3
1161.44
1161
1161.08
1162.58
1163.14
1162.91
1163.5
1161.48
1161.9
1161.3
1161.69
1160.76
1160.83
1160.58
1160.63
1162.28
1162.85
1162.1
1162.65
1163.51
1164.18
1164.65
1165.47
1163.78
1164.48
1164.83
1165.63
1163.26
1163.91
1164.48
1165.29
1163.03
1163.69
1164.24
1165
1166.07
1166.18
1166.41
1166.12
1166.17
1166.38
1165.87
1166.02
1166.26
1165.98
1166.03
1166.26
1165.48
1165.68
1165.96
1165.76
1165.85
1166.1
1162.56
1162.97
1163.41
1163.63
1163.99
1164.38
1164.44
1164.75
1165.09
1165.02
1165.28
1165.6
1165.59
1165.72
1166.02
1162.23
1162.7
1163.19
1163.46
1163.94
1164.43
1164.29
1164.71
1165.15
1164.96
1165.28
1165.66
1165.58
1165.75
1166.09
1160.69
1160.54
1160.56
1160.37
1161.09
1160.91
1160.94
1160.71
1160.61
1160.3
1160.58
1160.29
1160.52
1160.24
1160.45
1160.19
1160.25
1160.37
1160.17
1160.31
1160.19
1160.08
1160.22
1160.05
1160.53
1160.34
1160.16
1160
1160.05
1159.89
1160.02
1159.86
1159.99
1159.71
1160.04
1159.78
1159.94
1159.66
1159.96
1159.69
1159.91
1159.6
1159.84
1159.55
1159.79
1159.53
1159.65
1159.44
1160.34
1160.21
1160.17
1160.03
1160.76
1160.65
1160.56
1160.44
1159.9
1159.73
1160.05
1159.89
1160.01
1159.87
1159.84
1159.72
1160.37
1160.26
1160.19
1160.1
1159.76
1159.59
1159.6
1159.46
1159.67
1159.43
1159.53
1159.38
1159.79
1159.53
1159.67
1159.5
1159.55
1159.34
1159.4
1159.28
1159.42
1159.24
1159.29
1159.19
1159.99
1160.12
1159.74
1159.87
1159.99
1160.13
1159.72
1159.86
1159.99
1160.11
1159.69
1159.82
1160.47
1160.96
1160.16
1159.91
1159.65
1161.06
1160.57
1160.28
1160.04
1159.76
1160.87
1160.39
1160.04
1159.81
1159.62
1160.35
1160.67
1160.11
1160.41
1160.34
1160.64
1160.07
1160.37
1160.29
1160.58
1160
1160.28
1161.19
1161.43
1160.67
1160.92
1160.38
1160.63
1160.15
1160.41
1159.89
1160.15
1160.95
1161.09
1160.46
1160.6
1160.12
1160.29
1159.91
1160.12
1159.74
1160
1160.18
1160.23
1159.99
1159.99
1160.63
1160.67
1160.4
1160.37
1159.73
1159.79
1159.89
1160
1159.85
1159.8
1159.7
1159.64
1160.22
1160.15
1160.07
1159.97
1159.6
1159.62
1159.47
1159.48
1159.56
1159.7
1159.49
1159.7
1159.71
1159.89
1159.6
1159.84
1159.44
1159.54
1159.38
1159.57
1159.34
1159.42
1159.29
1159.46
1161.1
1161.53
1161.94
1160.95
1161.43
1161.84
1161.04
1161.48
1161.89
1160.88
1161.36
1161.79
1160.96
1161.38
1161.8
1160.76
1161.27
1161.72
1161.76
1162.17
1162.62
1161.26
1161.68
1162.14
1160.97
1161.42
1161.88
1160.77
1161.22
1161.67
1160.64
1161.18
1161.67
1161.35
1161.8
1162.3
1160.88
1161.33
1161.84
1160.61
1161.09
1161.62
1160.49
1161
1161.53
1160.52
1161.08
1161.62
1159.59
1159.77
1160.25
1161.14
1159.67
1159.86
1160.36
1161.26
1159.55
1159.74
1160.22
1161.13
1159.6
1159.81
1160.31
1161.22
1159.51
1159.71
1160.17
1161.04
1159.49
1159.71
1160.21
1161.1
1159.5
1159.75
1160.28
1161.2
1159.45
1159.73
1160.28
1161.2
1159.4
1159.64
1160.12
1161.01
1159.42
1159.67
1160.11
1160.91
1159.48
1159.69
1160.13
1160.95
1159.5
1159.73
1160.14
1160.89
1159.34
1159.6
1160.12
1161.04
1159.34
1159.62
1160.09
1160.9
1159.27
1159.56
1160.1
1161.02
1159.28
1159.57
1160.06
1160.87
1159.6
1159.76
1160.2
1161.04
1159.72
1159.85
1160.22
1160.96
1159.59
1159.76
1160.19
1161.02
1159.71
1159.85
1160.22
1160.95
1159.58
1159.75
1160.17
1160.98
1159.69
1159.84
1160.22
1160.93
1159.58
1159.76
1160.16
1160.92
1159.67
1159.84
1160.21
1160.9
1159.59
1159.79
1160.17
1160.87
1159.89
1160
1160.34
1160.86
1160.09
1160.18
1160.53
1161.02
1159.87
1159.99
1160.33
1160.85
1160.06
1160.17
1160.52
1161.01
1159.83
1159.97
1160.32
1160.84
1160.03
1160.15
1160.51
1161.01
1159.77
1159.94
1160.29
1160.82
1159.97
1160.13
1160.49
1160.99
1159.7
1159.9
1160.26
1160.8
1159.91
1160.09
1160.48
1160.98
1159.56
1159.82
1160.23
1160.78
1159.75
1160
1160.42
1160.94
1159.63
1159.86
1160.25
1160.79
1159.83
1160.05
1160.45
1160.96
1159.49
1159.78
1160.21
1160.77
1159.67
1159.96
1160.39
1160.92
1159.43
1159.74
1160.18
1160.75
1159.6
1159.91
1160.36
1160.9
1162.5
1163.6
1164.54
1165.3
1165.89
1162.57
1163.66
1164.59
1165.35
1165.94
1162.49
1163.6
1164.53
1165.3
1165.88
1162.56
1163.65
1164.58
1165.35
1165.93
1162.48
1163.59
1164.53
1165.29
1165.88
1162.51
1163.61
1164.54
1165.31
1165.9
1162.54
1163.63
1164.57
1165.34
1165.93
1162.52
1163.62
1164.56
1165.33
1165.92
1162.47
1163.58
1164.53
1165.29
1165.88
1162.53
1163.67
1164.61
1165.37
1165.96
1162.48
1163.6
1164.55
1165.31
1165.9
1162.54
1163.68
1164.63
1165.39
1165.98
1162.47
1163.58
1164.53
1165.29
1165.88
1162.53
1163.67
1164.62
1165.39
1165.97
1162.45
1163.57
1164.52
1165.29
1165.88
1162.53
1163.68
1164.62
1165.39
1165.98
1162.51
1163.63
1164.56
1165.33
1165.91
1162.59
1163.72
1164.66
1165.42
1166.01
1162.51
1163.63
1164.57
1165.33
1165.92
1162.59
1163.72
1164.66
1165.43
1166.01
1162.51
1163.64
1164.58
1165.34
1165.93
1162.59
1163.73
1164.67
1165.43
1166.02
1162.53
1163.67
1164.61
1165.38
1165.97
1162.61
1163.75
1164.69
1165.45
1166.04
1162.58
1163.72
1164.67
1165.43
1166.02
1167.35
1167.53
1167.27
1167.45
1167.12
1167.33
1166.94
1167.18
1166.75
1167.03
1166.46
1166.78
1166.61
1166.92
1166.31
1166.62
1166.16
1166.44
1169.34
1171.51
1173.34
1174.76
1175.74
1169.31
1171.49
1173.34
1174.78
1175.76
1169.3
1171.49
1173.33
1174.75
1175.73
1169.27
1171.48
1173.33
1174.77
1175.76
1169.23
1171.45
1173.3
1174.73
1175.71
1169.2
1171.44
1173.31
1174.75
1175.74
1169.13
1171.39
1173.26
1174.7
1175.68
1169.11
1171.39
1173.27
1174.73
1175.72
1169.01
1171.32
1173.21
1174.67
1175.65
1169.02
1171.33
1173.23
1174.69
1175.69
1168.77
1171.14
1173.07
1174.56
1175.55
1168.79
1171.16
1173.1
1174.59
1175.6
1168.89
1171.23
1173.14
1174.61
1175.61