/*--------------------------------*- C++ -*----------------------------------*\
| =========                 |                                                 |
| \\      /  F ield         | OpenFOAM: The Open Source CFD Toolbox           |
|  \\    /   O peration     | Version:  2306                                  |
|   \\  /    A nd           | Website:  www.openfoam.com                      |
|    \\/     M anipulation  |                                                 |
\*---------------------------------------------------------------------------*/
FoamFile
{
    version     2.0;
    format      ascii;
    arch        "LSB;label=32;scalar=64";
    class       volVectorField;
    location    "60";
    object      U;
}
// * * * * * * * * * * * * * * * * * * * * * * * * * * * * * * * * * * * * * //

dimensions      [0 1 -1 0 0 0 0];

internalField   nonuniform List<vector> 
4480
(
(-0.00020752 0 0.000207189)
(-0.000435656 0 0.000269232)
(-0.000849038 0 0.000302501)
(-0.00130058 0 0.000325118)
(-0.00176755 0 0.000333963)
(-0.00223483 0 0.000328186)
(-0.00268391 0 0.000308475)
(-0.00309568 0 0.000275486)
(-0.00345175 0 0.000229592)
(-0.00373424 0 0.000171069)
(-0.00392557 0 0.00010023)
(-0.00400865 0 1.75064e-05)
(-0.00396732 0 -7.64769e-05)
(-0.00378609 0 -0.000180656)
(-0.00345183 0 -0.000293096)
(-0.00295478 0 -0.000410983)
(-0.00228991 0 -0.0005307)
(-0.00145827 0 -0.00064794)
(-0.000466271 0 -0.000758101)
(0.00067737 0 -0.000855061)
(0.00193948 0 -0.000931094)
(0.00329317 0 -0.000982737)
(0.00470261 0 -0.00100891)
(0.00613145 0 -0.00100965)
(0.00754449 0 -0.0009862)
(0.00890906 0 -0.000940882)
(0.0101963 0 -0.000876831)
(0.0113823 0 -0.000797686)
(0.0124482 0 -0.000707308)
(0.0133808 0 -0.000609526)
(0.0141723 0 -0.000507949)
(0.0148194 0 -0.000405824)
(0.0153235 0 -0.000305952)
(0.0156894 0 -0.000210646)
(0.0159247 0 -0.000121718)
(0.0160393 0 -4.0405e-05)
(0.0160448 0 3.27295e-05)
(0.015953 0 9.75652e-05)
(0.0157751 0 0.000154136)
(0.0155229 0 0.000202655)
(0.0152075 0 0.000243411)
(0.0148397 0 0.000276789)
(0.0144296 0 0.00030326)
(0.0139865 0 0.000323358)
(0.0135192 0 0.000337659)
(0.0130353 0 0.000346758)
(0.0125418 0 0.000351258)
(0.0120448 0 0.000351749)
(0.0115496 0 0.0003488)
(0.0110605 0 0.00034295)
(0.0105814 0 0.000334699)
(0.0101154 0 0.000324504)
(0.00966484 0 0.000312779)
(0.00923166 0 0.000299892)
(0.00881728 0 0.000286167)
(0.00842268 0 0.000271884)
(0.00804849 0 0.000257284)
(0.00769501 0 0.00024257)
(0.00736228 0 0.000227909)
(0.00705013 0 0.000213441)
(0.00675821 0 0.000199275)
(0.00648603 0 0.000185499)
(0.006233 0 0.000172179)
(0.00599843 0 0.000159364)
(0.0057816 0 0.000147087)
(0.00558173 0 0.00013537)
(0.00539802 0 0.000124223)
(0.00522966 0 0.000113648)
(0.00507585 0 0.000103641)
(0.00493579 0 9.41903e-05)
(0.00480872 0 8.52808e-05)
(0.00469387 0 7.68932e-05)
(0.00459053 0 6.90053e-05)
(0.004498 0 6.15925e-05)
(0.00441564 0 5.46279e-05)
(0.00434284 0 4.80831e-05)
(0.00427901 0 4.19281e-05)
(0.00422363 0 3.61317e-05)
(0.00417621 0 3.06614e-05)
(0.00413632 0 2.54835e-05)
(0.00410357 0 2.05632e-05)
(0.00407762 0 1.58643e-05)
(0.00405818 0 1.13495e-05)
(0.00404501 0 6.98038e-06)
(0.00403793 0 2.71803e-06)
(0.00403683 0 -1.47696e-06)
(0.00404164 0 -5.65248e-06)
(0.00405236 0 -9.86157e-06)
(0.00406908 0 -1.41584e-05)
(0.00409195 0 -1.86029e-05)
(0.00412123 0 -2.3262e-05)
(0.00415727 0 -2.82105e-05)
(0.00420053 0 -3.35337e-05)
(0.00425161 0 -3.93293e-05)
(0.00431122 0 -4.57108e-05)
(0.0043803 0 -5.28113e-05)
(0.00445993 0 -6.07881e-05)
(0.00455149 0 -6.98293e-05)
(0.0046566 0 -8.01616e-05)
(0.00477724 0 -9.20609e-05)
(0.00491585 0 -0.000105865)
(0.00507534 0 -0.000121993)
(0.00525933 0 -0.000140964)
(0.0054722 0 -0.000163428)
(0.00571941 0 -0.000190195)
(0.0060077 0 -0.000222274)
(0.00634547 0 -0.000260904)
(0.00674319 0 -0.000307568)
(0.00721388 0 -0.000363963)
(0.00777366 0 -0.000431915)
(0.00844308 0 -0.000513659)
(0.00925065 0 -0.000614792)
(0.0102319 0 -0.000754677)
(0.0114008 0 -0.000986517)
(0.012783 0 -0.00145261)
(0.0152066 0 -0.00282514)
(0.0227634 0 -0.00870904)
(0.0368113 0 -0.0317656)
(0.0412006 0 -0.0809696)
(0.0179887 0 -0.101682)
(-0.0114962 0 -0.103412)
(-0.0362228 0 -0.083714)
(-0.0321058 0 -0.0326489)
(-0.0174407 0 -0.00910424)
(-0.00958996 0 -0.00294229)
(-0.00715118 0 -0.00146247)
(-0.00581805 0 -0.000956141)
(-0.00470545 0 -0.000711964)
(-0.00378046 0 -0.000571499)
(-0.00302696 0 -0.000473502)
(-0.00240814 0 -0.000395157)
(-0.00189564 0 -0.000329776)
(-0.00146994 0 -0.000274855)
(-0.0011163 0 -0.000228494)
(-0.000823225 0 -0.000188916)
(-0.000581971 0 -0.000154517)
(-0.000385656 0 -0.000124005)
(-0.000228075 0 -9.67863e-05)
(-0.000106221 0 -7.29894e-05)
(-4.76591e-05 0 -4.7956e-05)
(-0.000271152 0 0.000435779)
(-0.000557952 0 0.000555075)
(-0.00105515 0 0.00063385)
(-0.00158894 0 0.000680297)
(-0.00213775 0 0.000696295)
(-0.00268412 0 0.000682598)
(-0.00320626 0 0.000640308)
(-0.00368166 0 0.000570377)
(-0.00408853 0 0.000473451)
(-0.00440558 0 0.00035007)
(-0.00461199 0 0.0002009)
(-0.00468762 0 2.6903e-05)
(-0.00461358 0 -0.000170603)
(-0.00437229 0 -0.000389226)
(-0.00394924 0 -0.00062478)
(-0.00333398 0 -0.000871309)
(-0.00252159 0 -0.0011212)
(-0.00151428 0 -0.00136564)
(-0.000318728 0 -0.00159566)
(0.0010502 0 -0.00179694)
(0.00255376 0 -0.00195465)
(0.00416043 0 -0.00206248)
(0.00582938 0 -0.00211752)
(0.00751922 0 -0.00211963)
(0.00918985 0 -0.00207132)
(0.0108041 0 -0.00197735)
(0.0123291 0 -0.00184418)
(0.0137374 0 -0.00167937)
(0.0150075 0 -0.0014909)
(0.016124 0 -0.00128676)
(0.0170773 0 -0.00107444)
(0.0178634 0 -0.000860715)
(0.018483 0 -0.000651411)
(0.0189409 0 -0.000451356)
(0.0192453 0 -0.000264321)
(0.0194065 0 -9.29716e-05)
(0.0194371 0 6.13378e-05)
(0.0193509 0 0.000198331)
(0.0191606 0 0.000318108)
(0.0188797 0 0.000421018)
(0.0185214 0 0.000507642)
(0.0180981 0 0.00057877)
(0.0176219 0 0.000635373)
(0.0171038 0 0.000678553)
(0.0165542 0 0.000709503)
(0.0159823 0 0.000729464)
(0.0153967 0 0.000739688)
(0.0148046 0 0.00074141)
(0.0142125 0 0.000735822)
(0.0136261 0 0.000724052)
(0.01305 0 0.000707151)
(0.0124881 0 0.000686082)
(0.0119435 0 0.00066172)
(0.0114187 0 0.000634842)
(0.0109157 0 0.000606134)
(0.0104358 0 0.000576192)
(0.00997982 0 0.000545529)
(0.00954837 0 0.000514576)
(0.00914162 0 0.000483696)
(0.00875946 0 0.000453186)
(0.00840159 0 0.000423283)
(0.00806749 0 0.000394176)
(0.00775653 0 0.000366011)
(0.00746794 0 0.000338893)
(0.00720088 0 0.000312897)
(0.00695446 0 0.000288073)
(0.00672774 0 0.000264444)
(0.00651978 0 0.000242017)
(0.00632961 0 0.000220785)
(0.0061563 0 0.000200725)
(0.0059989 0 0.000181808)
(0.00585652 0 0.000163993)
(0.00572829 0 0.000147234)
(0.00561336 0 0.00013148)
(0.00551094 0 0.000116675)
(0.0054203 0 0.000102759)
(0.00534072 0 8.96696e-05)
(0.00527156 0 7.73404e-05)
(0.00521223 0 6.5703e-05)
(0.00516219 0 5.46865e-05)
(0.00512096 0 4.4217e-05)
(0.00508813 0 3.42185e-05)
(0.00506334 0 2.46119e-05)
(0.00504629 0 1.53156e-05)
(0.00503677 0 6.24611e-06)
(0.00503461 0 -2.68169e-06)
(0.00503976 0 -1.15656e-05)
(0.0050522 0 -2.05161e-05)
(0.00507203 0 -2.96495e-05)
(0.00509944 0 -3.9093e-05)
(0.00513472 0 -4.89874e-05)
(0.00517831 0 -5.94911e-05)
(0.00523076 0 -7.07839e-05)
(0.00529277 0 -8.30725e-05)
(0.00536523 0 -9.65962e-05)
(0.00544925 0 -0.000111636)
(0.00554616 0 -0.000128523)
(0.00565758 0 -0.000147654)
(0.0057855 0 -0.000169508)
(0.0059323 0 -0.000194668)
(0.0061009 0 -0.000223849)
(0.00629483 0 -0.00025794)
(0.00651843 0 -0.000298052)
(0.00677705 0 -0.000345588)
(0.0070773 0 -0.000402332)
(0.00742752 0 -0.000470576)
(0.00783828 0 -0.00055329)
(0.00832329 0 -0.000654379)
(0.00890078 0 -0.000779103)
(0.00959594 0 -0.000934854)
(0.0104458 0 -0.00113306)
(0.0115092 0 -0.00139474)
(0.0128817 0 -0.00176567)
(0.0147145 0 -0.0023476)
(0.0172929 0 -0.00336073)
(0.0213668 0 -0.00540672)
(0.0283329 0 -0.0106844)
(0.0358974 0 -0.0259183)
(0.0326296 0 -0.0582944)
(0.0150015 0 -0.0759498)
(-0.00813271 0 -0.0771438)
(-0.026662 0 -0.0603203)
(-0.0300587 0 -0.0269049)
(-0.0221382 0 -0.0110982)
(-0.0149188 0 -0.00555105)
(-0.0107342 0 -0.00337757)
(-0.0081148 0 -0.00230517)
(-0.00627624 0 -0.00169964)
(-0.00491964 0 -0.00132252)
(-0.00388463 0 -0.00106171)
(-0.00306946 0 -0.000866391)
(-0.00241214 0 -0.000713297)
(-0.00187445 0 -0.000590014)
(-0.0014312 0 -0.000488617)
(-0.00106489 0 -0.000403483)
(-0.000763006 0 -0.000330415)
(-0.000516069 0 -0.000266311)
(-0.000315602 0 -0.000209039)
(-0.000155768 0 -0.000156752)
(-7.23326e-05 0 -0.00010686)
(-0.000309754 0 0.000853305)
(-0.000647918 0 0.00105455)
(-0.00121579 0 0.00119435)
(-0.00181581 0 0.00127533)
(-0.00242744 0 0.00130003)
(-0.00303223 0 0.00127002)
(-0.00360613 0 0.00118684)
(-0.00412421 0 0.00105182)
(-0.00456223 0 0.000866006)
(-0.00489643 0 0.000630439)
(-0.0051036 0 0.000346475)
(-0.00516142 0 1.61276e-05)
(-0.00504895 0 -0.000357732)
(-0.00474731 0 -0.000769969)
(-0.00424112 0 -0.00121244)
(-0.00351965 0 -0.00167393)
(-0.00257841 0 -0.00214029)
(-0.00142102 0 -0.00259522)
(-5.33349e-05 0 -0.00302158)
(0.0015002 0 -0.00339108)
(0.00319907 0 -0.00367958)
(0.00500696 0 -0.00387647)
(0.00687908 0 -0.00397639)
(0.00877043 0 -0.00397913)
(0.0106376 0 -0.00388934)
(0.0124406 0 -0.00371574)
(0.0141442 0 -0.0034701)
(0.0157193 0 -0.00316605)
(0.0171428 0 -0.00281811)
(0.0183984 0 -0.00244067)
(0.0194759 0 -0.00204734)
(0.0203707 0 -0.00165042)
(0.0210832 0 -0.00126055)
(0.0216181 0 -0.000886578)
(0.0219836 0 -0.000535471)
(0.0221905 0 -0.000212277)
(0.0222512 0 8.00485e-05)
(0.0221805 0 0.000340486)
(0.0219922 0 0.000569071)
(0.0217008 0 0.000766305)
(0.0213204 0 0.000933146)
(0.0208649 0 0.00107097)
(0.0203473 0 0.0011815)
(0.0197799 0 0.00126671)
(0.0191743 0 0.00132877)
(0.0185408 0 0.00136994)
(0.0178889 0 0.00139253)
(0.0172272 0 0.00139881)
(0.016563 0 0.00139102)
(0.0159028 0 0.00137124)
(0.015252 0 0.00134146)
(0.0146154 0 0.00130349)
(0.0139966 0 0.001259)
(0.0133988 0 0.00120946)
(0.0128243 0 0.00115619)
(0.0122748 0 0.00110034)
(0.0117516 0 0.0010429)
(0.0112556 0 0.000984706)
(0.0107869 0 0.000926475)
(0.0103459 0 0.00086879)
(0.00993208 0 0.000812125)
(0.00954516 0 0.000756857)
(0.00918446 0 0.000703281)
(0.00884923 0 0.000651616)
(0.00853858 0 0.000602021)
(0.00825156 0 0.000554599)
(0.00798715 0 0.00050941)
(0.00774431 0 0.000466479)
(0.00752199 0 0.000425796)
(0.00731912 0 0.000387331)
(0.00713467 0 0.000351028)
(0.00696761 0 0.00031682)
(0.00681696 0 0.000284622)
(0.00668175 0 0.000254339)
(0.0065611 0 0.000225868)
(0.00645413 0 0.000199096)
(0.00636005 0 0.000173906)
(0.00627811 0 0.000150173)
(0.00620763 0 0.000127767)
(0.00614797 0 0.000106553)
(0.00609859 0 8.63925e-05)
(0.006059 0 6.71389e-05)
(0.00602877 0 4.8642e-05)
(0.00600757 0 3.07458e-05)
(0.00599513 0 1.32887e-05)
(0.00599125 0 -3.89452e-06)
(0.00599588 0 -2.09867e-05)
(0.00600896 0 -3.81942e-05)
(0.00603059 0 -5.57393e-05)
(0.00606099 0 -7.38642e-05)
(0.00610047 0 -9.28371e-05)
(0.00614949 0 -0.000112959)
(0.00620867 0 -0.000134571)
(0.00627879 0 -0.000158063)
(0.00636082 0 -0.000183889)
(0.00645598 0 -0.000212579)
(0.00656574 0 -0.000244758)
(0.00669188 0 -0.000281175)
(0.00683658 0 -0.000322729)
(0.00700245 0 -0.000370519)
(0.00719266 0 -0.000425893)
(0.00741108 0 -0.000490531)
(0.00766242 0 -0.000566539)
(0.00795248 0 -0.000656602)
(0.00828849 0 -0.000764178)
(0.00867952 0 -0.000893809)
(0.00913722 0 -0.00105159)
(0.00967683 0 -0.00124592)
(0.0103188 0 -0.00148894)
(0.0110917 0 -0.00179904)
(0.0120364 0 -0.00220612)
(0.0132139 0 -0.00276267)
(0.0147143 0 -0.00356725)
(0.0166659 0 -0.00480912)
(0.0192457 0 -0.00684807)
(0.0226725 0 -0.0103954)
(0.0268358 0 -0.0169627)
(0.0294551 0 -0.0291859)
(0.0249487 0 -0.0468676)
(0.0121818 0 -0.0579325)
(-0.00453011 0 -0.0587205)
(-0.0179312 0 -0.0482367)
(-0.0225955 0 -0.0301706)
(-0.0198457 0 -0.0175539)
(-0.0155019 0 -0.0107068)
(-0.0119318 0 -0.00697527)
(-0.00925329 0 -0.00482442)
(-0.00724112 0 -0.00352099)
(-0.00571011 0 -0.0026857)
(-0.00452371 0 -0.00211517)
(-0.00358472 0 -0.00170215)
(-0.00282752 0 -0.00138916)
(-0.00220835 0 -0.00114348)
(-0.00169742 0 -0.000944978)
(-0.0012739 0 -0.000780424)
(-0.000922925 0 -0.000640668)
(-0.000633268 0 -0.000519287)
(-0.000394617 0 -0.000411853)
(-0.000199098 0 -0.000315109)
(-9.19314e-05 0 -0.000227452)
(-0.000341925 0 0.00131941)
(-0.000714709 0 0.00160339)
(-0.00133556 0 0.00180083)
(-0.00198542 0 0.00191278)
(-0.00264315 0 0.00194174)
(-0.00328937 0 0.00188972)
(-0.00389833 0 0.0017586)
(-0.00444336 0 0.00155001)
(-0.00489841 0 0.00126534)
(-0.00523792 0 0.000906134)
(-0.00543692 0 0.000474546)
(-0.00547146 0 -2.61975e-05)
(-0.00531898 0 -0.000591308)
(-0.00495973 0 -0.00121255)
(-0.00437761 0 -0.00187749)
(-0.0035616 0 -0.0025693)
(-0.0025076 0 -0.00326696)
(-0.00122041 0 -0.00394608)
(0.000295778 0 -0.0045795)
(0.00200376 0 -0.00512203)
(0.00386437 0 -0.005543)
(0.00583583 0 -0.00582775)
(0.00786996 0 -0.00596889)
(0.00991865 0 -0.00596666)
(0.0119359 0 -0.0058284)
(0.0138799 0 -0.00556732)
(0.0157141 0 -0.00520094)
(0.0174087 0 -0.00474936)
(0.0189407 0 -0.00423378)
(0.0202936 0 -0.00367513)
(0.0214575 0 -0.00309309)
(0.0224282 0 -0.00250539)
(0.0232065 0 -0.00192737)
(0.0237973 0 -0.00137176)
(0.0242088 0 -0.000848632)
(0.024452 0 -0.000365385)
(0.0245395 0 7.33035e-05)
(0.024486 0 0.000465473)
(0.0243058 0 0.000810955)
(0.0240139 0 0.0011103)
(0.023625 0 0.00136474)
(0.0231535 0 0.00157618)
(0.022613 0 0.00174703)
(0.0220166 0 0.00188008)
(0.0213765 0 0.00197845)
(0.0207037 0 0.0020454)
(0.0200084 0 0.00208427)
(0.0192998 0 0.00209839)
(0.018586 0 0.00209102)
(0.0178741 0 0.00206526)
(0.0171701 0 0.00202405)
(0.0164792 0 0.00197008)
(0.0158059 0 0.00190585)
(0.0151534 0 0.00183359)
(0.0145248 0 0.0017553)
(0.0139221 0 0.00167272)
(0.0133468 0 0.00158737)
(0.0128001 0 0.00150056)
(0.0122826 0 0.00141338)
(0.0117944 0 0.00132676)
(0.0113356 0 0.00124144)
(0.0109058 0 0.00115803)
(0.0105044 0 0.001077)
(0.0101308 0 0.000998705)
(0.00978396 0 0.000923422)
(0.00946303 0 0.000851327)
(0.00916694 0 0.000782533)
(0.00889462 0 0.000717093)
(0.00864496 0 0.000655012)
(0.00841683 0 0.000596254)
(0.00820912 0 0.00054075)
(0.00802073 0 0.000488406)
(0.00785058 0 0.000439102)
(0.00769765 0 0.000392701)
(0.00756095 0 0.000349052)
(0.00743953 0 0.000307989)
(0.00733251 0 0.000269336)
(0.00723907 0 0.000232907)
(0.00715844 0 0.000198509)
(0.00708993 0 0.000165937)
(0.00703292 0 0.000134981)
(0.00698686 0 0.000105421)
(0.00695128 0 7.7029e-05)
(0.00692579 0 4.95679e-05)
(0.00691007 0 2.27912e-05)
(0.00690391 0 -3.55604e-06)
(0.00690721 0 -2.97462e-05)
(0.00691991 0 -5.60848e-05)
(0.00694209 0 -8.29079e-05)
(0.00697395 0 -0.000110581)
(0.00701581 0 -0.000139508)
(0.00706815 0 -0.000170139)
(0.00713158 0 -0.000202986)
(0.00720691 0 -0.000238631)
(0.00729515 0 -0.00027775)
(0.00739756 0 -0.000321127)
(0.00751562 0 -0.000369691)
(0.00765119 0 -0.000424546)
(0.00780647 0 -0.00048702)
(0.00798412 0 -0.000558728)
(0.00818734 0 -0.000641652)
(0.00841999 0 -0.000738258)
(0.00868678 0 -0.000851645)
(0.00899344 0 -0.000985769)
(0.00934703 0 -0.00114576)
(0.00975636 0 -0.00133838)
(0.0102325 0 -0.00157281)
(0.0107898 0 -0.00186182)
(0.0114468 0 -0.00222381)
(0.0122278 0 -0.00268639)
(0.0131653 0 -0.0032927)
(0.0143012 0 -0.00411276)
(0.0156858 0 -0.00526349)
(0.0173679 0 -0.00694096)
(0.0193648 0 -0.00946717)
(0.0215786 0 -0.0133552)
(0.0235224 0 -0.0193628)
(0.0236445 0 -0.0281972)
(0.0192834 0 -0.0386872)
(0.0100453 0 -0.0455712)
(-0.00163006 0 -0.0461339)
(-0.0113344 0 -0.0397374)
(-0.0158557 0 -0.0291517)
(-0.0157217 0 -0.0200634)
(-0.0136766 0 -0.013807)
(-0.0113417 0 -0.00972048)
(-0.00923538 0 -0.00705289)
(-0.00746642 0 -0.00528282)
(-0.00601931 0 -0.00407478)
(-0.00484262 0 -0.00322023)
(-0.00388179 0 -0.00259286)
(-0.00309105 0 -0.0021162)
(-0.00243521 0 -0.00174283)
(-0.00188796 0 -0.00144226)
(-0.00142977 0 -0.00119413)
(-0.00104616 0 -0.000984369)
(-0.000725833 0 -0.000803142)
(-0.000457949 0 -0.000643677)
(-0.000234061 0 -0.000501376)
(-0.000108853 0 -0.000374354)
(-0.000365144 0 0.00181763)
(-0.000761268 0 0.00218787)
(-0.00141907 0 0.00244219)
(-0.00210358 0 0.00258245)
(-0.00279265 0 0.00261169)
(-0.00346605 0 0.00253252)
(-0.00409678 0 0.00234717)
(-0.00465684 0 0.00205753)
(-0.00511888 0 0.0016653)
(-0.00545595 0 0.00117252)
(-0.00564173 0 0.000582153)
(-0.00565091 0 -0.000101257)
(-0.00545964 0 -0.00087076)
(-0.00504726 0 -0.00171475)
(-0.00439684 0 -0.00261621)
(-0.00349693 0 -0.00355236)
(-0.00234362 0 -0.00449491)
(-0.000942032 0 -0.00541089)
(0.000704424 0 -0.00626009)
(0.00254454 0 -0.00697873)
(0.00454246 0 -0.00753287)
(0.00665031 0 -0.00790321)
(0.00881637 0 -0.00808057)
(0.0109894 0 -0.00806619)
(0.0131212 0 -0.00787079)
(0.0151682 0 -0.00751281)
(0.0170936 0 -0.00701617)
(0.0188677 0 -0.00640793)
(0.0204681 0 -0.00571628)
(0.0218797 0 -0.00496884)
(0.0230938 0 -0.00419135)
(0.0241073 0 -0.00340684)
(0.0249221 0 -0.00263516)
(0.025544 0 -0.00189272)
(0.0259816 0 -0.00119246)
(0.0262464 0 -0.000543979)
(0.0263509 0 4.64143e-05)
(0.0263096 0 0.000575786)
(0.0261371 0 0.00104362)
(0.0258484 0 0.00145043)
(0.0254582 0 0.00179769)
(0.024981 0 0.00208774)
(0.0244308 0 0.00232363)
(0.0238207 0 0.00250898)
(0.0231631 0 0.00264777)
(0.0224695 0 0.00274425)
(0.0217502 0 0.00280276)
(0.0210149 0 0.00282767)
(0.0202718 0 0.00282326)
(0.0195284 0 0.00279362)
(0.0187911 0 0.00274264)
(0.0180656 0 0.00267394)
(0.0173565 0 0.00259083)
(0.0166677 0 0.00249634)
(0.0160022 0 0.00239315)
(0.0153626 0 0.00228365)
(0.0147507 0 0.00216993)
(0.0141678 0 0.00205377)
(0.0136147 0 0.0019367)
(0.013092 0 0.00182001)
(0.0125997 0 0.00170476)
(0.0121376 0 0.0015918)
(0.0117052 0 0.00148182)
(0.011302 0 0.00137535)
(0.0109271 0 0.00127278)
(0.0105796 0 0.00117439)
(0.0102584 0 0.00108036)
(0.00996263 0 0.000990796)
(0.009691 0 0.000905723)
(0.00944242 0 0.000825115)
(0.00921574 0 0.000748895)
(0.00900982 0 0.000676948)
(0.00882355 0 0.000609124)
(0.00865583 0 0.00054525)
(0.00850564 0 0.000485125)
(0.00837196 0 0.000428532)
(0.00825387 0 0.000375238)
(0.00815049 0 0.000324994)
(0.00806099 0 0.000277539)
(0.00798462 0 0.000232598)
(0.00792073 0 0.000189888)
(0.00786869 0 0.00014911)
(0.00782801 0 0.000109955)
(0.00779825 0 7.21014e-05)
(0.00777905 0 3.52124e-05)
(0.00777016 0 -1.06322e-06)
(0.00777146 0 -3.70904e-05)
(0.00778286 0 -7.32745e-05)
(0.00780441 0 -0.00011007)
(0.00783629 0 -0.000147968)
(0.0078788 0 -0.000187511)
(0.00793238 0 -0.000229302)
(0.00799765 0 -0.000274022)
(0.00807537 0 -0.000322447)
(0.00816654 0 -0.000375469)
(0.00827237 0 -0.000434126)
(0.0083943 0 -0.000499634)
(0.00853412 0 -0.000573441)
(0.00869392 0 -0.000657275)
(0.00887624 0 -0.000753234)
(0.00908408 0 -0.000863883)
(0.00932103 0 -0.000992397)
(0.0095914 0 -0.00114276)
(0.00990034 0 -0.00132003)
(0.0102541 0 -0.00153073)
(0.0106602 0 -0.00178347)
(0.0111278 0 -0.00208975)
(0.0116682 0 -0.0024654)
(0.0122949 0 -0.00293268)
(0.0130239 0 -0.00352373)
(0.0138735 0 -0.00428596)
(0.0148608 0 -0.00529045)
(0.0159952 0 -0.0066441)
(0.0172604 0 -0.00850488)
(0.0185791 0 -0.0110954)
(0.0197449 0 -0.0147027)
(0.0202847 0 -0.0196206)
(0.0192477 0 -0.0258822)
(0.0153845 0 -0.0324845)
(0.00863534 0 -0.0368193)
(0.000474241 0 -0.0372272)
(-0.00661454 0 -0.033307)
(-0.0106188 0 -0.0267441)
(-0.0116996 0 -0.0203423)
(-0.01112 0 -0.0152355)
(-0.00987135 0 -0.0114503)
(-0.00845732 0 -0.00871501)
(-0.00710171 0 -0.0067463)
(-0.00589017 0 -0.00531626)
(-0.00484164 0 -0.00425892)
(-0.00394639 0 -0.00345973)
(-0.00318535 0 -0.00284137)
(-0.00253865 0 -0.00235165)
(-0.00198866 0 -0.00195489)
(-0.00152079 0 -0.00162624)
(-0.00112341 0 -0.00134806)
(-0.000786874 0 -0.00110777)
(-0.000501163 0 -0.000896523)
(-0.000258423 0 -0.00070833)
(-0.000121006 0 -0.000540276)
(-0.000379129 0 0.00234002)
(-0.000789594 0 0.0027996)
(-0.00147036 0 0.00311091)
(-0.00217613 0 0.0032777)
(-0.00288396 0 0.00330408)
(-0.00357291 0 0.00319345)
(-0.00421509 0 0.0029485)
(-0.00478154 0 0.00257134)
(-0.00524392 0 0.00206393)
(-0.00557419 0 0.00142873)
(-0.00574486 0 0.000669492)
(-0.00572934 0 -0.000207889)
(-0.0055026 0 -0.00119419)
(-0.00504277 0 -0.0022743)
(-0.00433181 0 -0.0034264)
(-0.00335753 0 -0.00462142)
(-0.00211601 0 -0.00582328)
(-0.000610302 0 -0.00699001)
(0.00114986 0 -0.008062)
(0.00310772 0 -0.00896071)
(0.0052261 0 -0.00964826)
(0.00745149 0 -0.0101005)
(0.00972809 0 -0.0103068)
(0.0120012 0 -0.0102702)
(0.01422 0 -0.0100057)
(0.0163399 0 -0.0095381)
(0.0183237 0 -0.00889859)
(0.0201427 0 -0.00812198)
(0.0217763 0 -0.00724396)
(0.0232113 0 -0.00629907)
(0.0244412 0 -0.00531915)
(0.0254651 0 -0.00433241)
(0.0262866 0 -0.00336292)
(0.026913 0 -0.00243045)
(0.0273542 0 -0.00155049)
(0.0276221 0 -0.000734512)
(0.0277298 0 9.85887e-06)
(0.0276912 0 0.000678866)
(0.027521 0 0.00127158)
(0.027234 0 0.00178845)
(0.0268447 0 0.00223117)
(0.0263675 0 0.00260251)
(0.025816 0 0.00290616)
(0.0252033 0 0.00314649)
(0.0245415 0 0.00332836)
(0.0238419 0 0.00345695)
(0.023115 0 0.00353758)
(0.0223701 0 0.0035756)
(0.0216156 0 0.00357628)
(0.020859 0 0.00354468)
(0.0201069 0 0.00348562)
(0.019365 0 0.0034036)
(0.0186381 0 0.00330277)
(0.0179303 0 0.00318692)
(0.0172448 0 0.00305944)
(0.0165844 0 0.00292337)
(0.0159512 0 0.00278137)
(0.0153466 0 0.00263573)
(0.0147717 0 0.00248843)
(0.0142271 0 0.00234115)
(0.0137132 0 0.00219527)
(0.0132298 0 0.00205194)
(0.0127766 0 0.00191207)
(0.0123532 0 0.00177638)
(0.0119588 0 0.00164541)
(0.0115926 0 0.00151956)
(0.0112535 0 0.00139911)
(0.0109407 0 0.0012842)
(0.010653 0 0.00117492)
(0.0103892 0 0.00107125)
(0.0101483 0 0.00097311)
(0.00992911 0 0.000880385)
(0.00973046 0 0.000792897)
(0.00955128 0 0.000710439)
(0.0093905 0 0.000632768)
(0.0092471 0 0.000559617)
(0.00912011 0 0.000490697)
(0.00900862 0 0.000425697)
(0.00891178 0 0.000364289)
(0.0088288 0 0.000306129)
(0.00875897 0 0.000250856)
(0.00870167 0 0.000198094)
(0.00865633 0 0.00014745)
(0.00862249 0 9.85155e-05)
(0.00859977 0 5.08618e-05)
(0.00858788 0 4.04069e-06)
(0.00858663 0 -4.24095e-05)
(0.00859594 0 -8.89965e-05)
(0.00861582 0 -0.00013629)
(0.0086464 0 -0.000184907)
(0.00868794 0 -0.000235525)
(0.00874085 0 -0.000288898)
(0.00880567 0 -0.000345871)
(0.00888312 0 -0.000407403)
(0.0089741 0 -0.000474592)
(0.00907972 0 -0.00054871)
(0.00920131 0 -0.000631239)
(0.00934047 0 -0.00072393)
(0.00949911 0 -0.000828869)
(0.00967946 0 -0.000948564)
(0.00988414 0 -0.00108607)
(0.0101162 0 -0.00124513)
(0.0103794 0 -0.00143042)
(0.0106777 0 -0.00164781)
(0.0110162 0 -0.0019048)
(0.0114003 0 -0.00221111)
(0.0118366 0 -0.00257955)
(0.0123322 0 -0.00302723)
(0.0128943 0 -0.00357744)
(0.0135298 0 -0.00426223)
(0.0142427 0 -0.00512607)
(0.0150295 0 -0.00623058)
(0.0158708 0 -0.00765975)
(0.0167146 0 -0.00952317)
(0.0174501 0 -0.0119518)
(0.0178679 0 -0.0150745)
(0.0176052 0 -0.0189519)
(0.0161076 0 -0.0234098)
(0.0128079 0 -0.0277218)
(0.00778531 0 -0.0305043)
(0.00195784 0 -0.0307994)
(-0.00330813 0 -0.0283675)
(-0.00672713 0 -0.0241627)
(-0.00828996 0 -0.0196489)
(-0.00855216 0 -0.0156447)
(-0.00808638 0 -0.0123787)
(-0.00727775 0 -0.00981825)
(-0.00635265 0 -0.00784531)
(-0.0054326 0 -0.00633031)
(-0.00457533 0 -0.00516031)
(-0.00380286 0 -0.00424639)
(-0.00311905 0 -0.00352192)
(-0.00251953 0 -0.00293803)
(-0.00199684 0 -0.00245904)
(-0.00154297 0 -0.00205878)
(-0.00115059 0 -0.00171796)
(-0.000812893 0 -0.00142234)
(-0.000521744 0 -0.00116155)
(-0.000270739 0 -0.000928373)
(-0.000127351 0 -0.00071863)
(-0.000385181 0 0.00287617)
(-0.000802124 0 0.003427)
(-0.00149348 0 0.00379532)
(-0.00220882 0 0.00398736)
(-0.00292468 0 0.00400865)
(-0.00361966 0 0.00386354)
(-0.00426529 0 0.00355516)
(-0.00483198 0 0.00308584)
(-0.00529061 0 0.00245766)
(-0.00561225 0 0.00167338)
(-0.00576828 0 0.000737424)
(-0.00573078 0 -0.000343058)
(-0.00547339 0 -0.00155658)
(-0.00497269 0 -0.00288458)
(-0.00420909 0 -0.00430029)
(-0.0031692 0 -0.00576799)
(-0.00184879 0 -0.00724313)
(-0.0002471 0 -0.00867362)
(0.00161471 0 -0.00997438)
(0.00368083 0 -0.0110568)
(0.00590837 0 -0.0118767)
(0.00823842 0 -0.012405)
(0.0106103 0 -0.0126302)
(0.012965 0 -0.012558)
(0.0152491 0 -0.0122091)
(0.0174165 0 -0.011616)
(0.0194306 0 -0.0108184)
(0.0212642 0 -0.00985981)
(0.022899 0 -0.00878408)
(0.0243248 0 -0.00763296)
(0.0255383 0 -0.00644444)
(0.0265415 0 -0.00525168)
(0.0273406 0 -0.00408265)
(0.0279451 0 -0.00296)
(0.0283664 0 -0.00190132)
(0.0286175 0 -0.000919448)
(0.0287123 0 -2.286e-05)
(0.0286641 0 0.000784203)
(0.0284879 0 0.00150043)
(0.028198 0 0.00212625)
(0.0278085 0 0.00266363)
(0.0273334 0 0.00311583)
(0.0267858 0 0.00348717)
(0.0261783 0 0.00378278)
(0.0255223 0 0.00400835)
(0.0248289 0 0.00416997)
(0.0241078 0 0.00427387)
(0.0233681 0 0.00432636)
(0.022618 0 0.0043336)
(0.0218646 0 0.00430157)
(0.0211144 0 0.00423597)
(0.0203729 0 0.00414213)
(0.0196449 0 0.00402499)
(0.0189346 0 0.00388907)
(0.0182452 0 0.00373845)
(0.0175796 0 0.00357679)
(0.01694 0 0.00340731)
(0.016328 0 0.00323282)
(0.0157447 0 0.00305574)
(0.0151911 0 0.00287815)
(0.0146675 0 0.00270176)
(0.014174 0 0.00252803)
(0.0137105 0 0.00235811)
(0.0132765 0 0.00219291)
(0.0128715 0 0.00203317)
(0.0124948 0 0.0018794)
(0.0121454 0 0.00173199)
(0.0118224 0 0.00159115)
(0.0115248 0 0.00145702)
(0.0112515 0 0.00132962)
(0.0110015 0 0.00120889)
(0.0107735 0 0.00109469)
(0.0105666 0 0.000986844)
(0.0103796 0 0.000885111)
(0.0102114 0 0.000789214)
(0.0100611 0 0.000698841)
(0.00992765 0 0.00061365)
(0.00981016 0 0.000533272)
(0.00970774 0 0.000457315)
(0.00961961 0 0.000385365)
(0.00954504 0 0.000316989)
(0.00948336 0 0.000251733)
(0.009434 0 0.000189121)
(0.00939646 0 0.000128658)
(0.00937035 0 6.98255e-05)
(0.00935533 0 1.20813e-05)
(0.00935117 0 -4.51352e-05)
(0.00935778 0 -0.000102434)
(0.00937511 0 -0.000160494)
(0.00940325 0 -0.00022005)
(0.00944239 0 -0.00028191)
(0.00949288 0 -0.000346967)
(0.00955519 0 -0.000416218)
(0.00962992 0 -0.00049079)
(0.00971786 0 -0.000571964)
(0.00981996 0 -0.000661215)
(0.00993738 0 -0.000760253)
(0.0100715 0 -0.000871082)
(0.0102238 0 -0.00099607)
(0.0103963 0 -0.00113804)
(0.0105909 0 -0.00130041)
(0.0108102 0 -0.00148732)
(0.0110569 0 -0.00170386)
(0.0113339 0 -0.00195638)
(0.0116445 0 -0.00225282)
(0.0119922 0 -0.0026033)
(0.0123802 0 -0.00302078)
(0.0128116 0 -0.00352207)
(0.0132877 0 -0.00412913)
(0.0138074 0 -0.00487067)
(0.0143636 0 -0.00578408)
(0.0149395 0 -0.00691719)
(0.0155 0 -0.00832887)
(0.0159809 0 -0.0100862)
(0.0162724 0 -0.0122537)
(0.0162015 0 -0.0148681)
(0.0155176 0 -0.0178877)
(0.0139095 0 -0.0211019)
(0.0111327 0 -0.0240097)
(0.00730625 0 -0.0258457)
(0.00300648 0 -0.026059)
(-0.00097126 0 -0.0245278)
(-0.00385855 0 -0.0217538)
(-0.00553481 0 -0.0185412)
(-0.00624011 0 -0.0154472)
(-0.00628929 0 -0.0127268)
(-0.0059465 0 -0.0104485)
(-0.0053985 0 -0.00858966)
(-0.00476528 0 -0.00709123)
(-0.00411811 0 -0.00588649)
(-0.00349599 0 -0.00491424)
(-0.00291812 0 -0.00412331)
(-0.00239226 0 -0.00347278)
(-0.00191999 0 -0.00293063)
(-0.0014998 0 -0.00247208)
(-0.00112901 0 -0.00207796)
(-0.000804179 0 -0.00173352)
(-0.000519636 0 -0.00142758)
(-0.00027096 0 -0.001152)
(-0.000127868 0 -0.000901357)
(-0.000384574 0 0.00341594)
(-0.000801113 0 0.00405884)
(-0.00149216 0 0.00448408)
(-0.00220676 0 0.00470065)
(-0.00292138 0 0.00471569)
(-0.00361444 0 0.0045345)
(-0.00425721 0 0.00416069)
(-0.00481978 0 0.00359661)
(-0.00527244 0 0.0028443)
(-0.00558543 0 0.00190659)
(-0.005729 0 0.00078834)
(-0.00567376 0 -0.000502238)
(-0.00539175 0 -0.0019516)
(-0.00485754 0 -0.00353783)
(-0.00404947 0 -0.00522924)
(-0.00295239 0 -0.00698307)
(-0.00156126 0 -0.0087454)
(0.0001292 0 -0.0104521)
(0.00208481 0 -0.0119881)
(0.00425254 0 -0.0132574)
(0.0065818 0 -0.0142073)
(0.00900763 0 -0.0148038)
(0.0114633 0 -0.0150349)
(0.0138849 0 -0.0149104)
(0.0162157 0 -0.0144584)
(0.0184086 0 -0.0137205)
(0.0204276 0 -0.0127469)
(0.0222478 0 -0.0115907)
(0.0238542 0 -0.0103048)
(0.0252405 0 -0.00893842)
(0.0264072 0 -0.00753577)
(0.0273603 0 -0.00613466)
(0.0281093 0 -0.00476647)
(0.0286663 0 -0.00345621)
(0.0290449 0 -0.00222293)
(0.0292595 0 -0.00108024)
(0.0293248 0 -3.68794e-05)
(0.029254 0 0.000902882)
(0.0290622 0 0.00173752)
(0.0287633 0 0.0024676)
(0.028371 0 0.00309548)
(0.0278983 0 0.00362497)
(0.0273577 0 0.0040611)
(0.026761 0 0.00440978)
(0.0261189 0 0.00467752)
(0.0254414 0 0.00487127)
(0.0247377 0 0.00499813)
(0.024016 0 0.00506526)
(0.0232841 0 0.00507967)
(0.0225484 0 0.00504817)
(0.0218152 0 0.00497723)
(0.0210895 0 0.00487296)
(0.0203759 0 0.004741)
(0.0196784 0 0.00458655)
(0.0190003 0 0.00441433)
(0.0183443 0 0.00422856)
(0.0177126 0 0.004033)
(0.0171069 0 0.00383094)
(0.0165286 0 0.00362524)
(0.0159784 0 0.00341835)
(0.015457 0 0.00321235)
(0.0149646 0 0.00300895)
(0.0145011 0 0.00280957)
(0.0140663 0 0.00261535)
(0.0136597 0 0.00242718)
(0.0132808 0 0.00224574)
(0.0129287 0 0.0020715)
(0.0126026 0 0.00190479)
(0.0123016 0 0.0017458)
(0.0120246 0 0.00159459)
(0.0117708 0 0.00145112)
(0.0115389 0 0.00131528)
(0.011328 0 0.00118686)
(0.011137 0 0.00106562)
(0.010965 0 0.000951239)
(0.0108108 0 0.000843378)
(0.0106735 0 0.000741644)
(0.0105524 0 0.000645615)
(0.0104464 0 0.000554841)
(0.0103547 0 0.000468844)
(0.0102768 0 0.000387119)
(0.0102118 0 0.000309138)
(0.0101593 0 0.00023435)
(0.0101186 0 0.000162174)
(0.0100894 0 9.20068e-05)
(0.0100713 0 2.32156e-05)
(0.0100641 0 -4.48561e-05)
(0.0100675 0 -0.000112916)
(0.0100816 0 -0.000181741)
(0.0101064 0 -0.000252178)
(0.0101419 0 -0.00032515)
(0.0101885 0 -0.000401676)
(0.0102464 0 -0.000482888)
(0.0103163 0 -0.000570055)
(0.0103987 0 -0.000664614)
(0.0104944 0 -0.000768204)
(0.0106043 0 -0.000882712)
(0.0107295 0 -0.00101033)
(0.0108712 0 -0.00115363)
(0.0110307 0 -0.00131564)
(0.0112097 0 -0.00149998)
(0.0114097 0 -0.001711)
(0.0116326 0 -0.00195396)
(0.01188 0 -0.00223529)
(0.0121535 0 -0.00256292)
(0.0124546 0 -0.00294665)
(0.0127836 0 -0.00339874)
(0.0131398 0 -0.00393449)
(0.0135201 0 -0.004573)
(0.0139172 0 -0.00533798)
(0.0143174 0 -0.00625824)
(0.0146966 0 -0.0073676)
(0.0150148 0 -0.00870306)
(0.0152093 0 -0.0102997)
(0.0151862 0 -0.0121796)