/*--------------------------------*- C++ -*----------------------------------*\
| =========                 |                                                 |
| \\      /  F ield         | OpenFOAM: The Open Source CFD Toolbox           |
|  \\    /   O peration     | Version:  2306                                  |
|   \\  /    A nd           | Website:  www.openfoam.com                      |
|    \\/     M anipulation  |                                                 |
\*---------------------------------------------------------------------------*/
FoamFile
{
    version     2.0;
    format      ascii;
    arch        "LSB;label=32;scalar=64";
    class       volVectorField;
    location    "60";
    object      UMean;
}
// * * * * * * * * * * * * * * * * * * * * * * * * * * * * * * * * * * * * * //

dimensions      [0 1 -1 0 0 0 0];

internalField   nonuniform List<vector> 
4480
(
(-0.000205436 0 0.000205097)
(-0.000431324 0 0.000266544)
(-0.000840642 0 0.000299505)
(-0.00128778 0 0.000321914)
(-0.00175021 0 0.000330682)
(-0.00221296 0 0.00032496)
(-0.00265767 0 0.00030543)
(-0.00306542 0 0.000272737)
(-0.00341796 0 0.000227249)
(-0.00369756 0 0.000169238)
(-0.00388679 0 9.90153e-05)
(-0.00396871 0 1.70128e-05)
(-0.0039273 0 -7.61443e-05)
(-0.00374722 0 -0.000179393)
(-0.00341548 0 -0.000290806)
(-0.00292244 0 -0.000407589)
(-0.00226315 0 -0.000526147)
(-0.00143872 0 -0.000642201)
(-0.000455527 0 -0.000751191)
(0.000677574 0 -0.000847036)
(0.00192782 0 -0.000922117)
(0.00326842 0 -0.000972992)
(0.00466381 0 -0.000998574)
(0.00607788 0 -0.000998889)
(0.00747564 0 -0.000975168)
(0.00882464 0 -0.000929722)
(0.0100962 0 -0.000865671)
(0.0112665 0 -0.000786641)
(0.012317 0 -0.000696479)
(0.0132346 0 -0.000599004)
(0.0140115 0 -0.000497815)
(0.0146446 0 -0.000396152)
(0.0151353 0 -0.000296807)
(0.0154886 0 -0.000202088)
(0.0157122 0 -0.000113794)
(0.015816 0 -3.31354e-05)
(0.0158117 0 3.93386e-05)
(0.0157109 0 0.000103516)
(0.015525 0 0.000159422)
(0.0152657 0 0.000207254)
(0.0149442 0 0.000247298)
(0.0145714 0 0.000279941)
(0.0141572 0 0.000305659)
(0.0137113 0 0.000324993)
(0.0132421 0 0.000338525)
(0.0127575 0 0.000346858)
(0.0122643 0 0.000350603)
(0.0117687 0 0.000350358)
(0.0112759 0 0.000346698)
(0.0107903 0 0.000340166)
(0.0103156 0 0.000331269)
(0.00985475 0 0.000320467)
(0.00941027 0 0.000308177)
(0.00898394 0 0.00029477)
(0.00857712 0 0.000280569)
(0.00819073 0 0.000265858)
(0.00782532 0 0.000250875)
(0.00748113 0 0.000235824)
(0.00715813 0 0.000220873)
(0.0068561 0 0.000206159)
(0.00657462 0 0.000191792)
(0.00631313 0 0.000177859)
(0.00607098 0 0.000164425)
(0.00584743 0 0.000151538)
(0.00564169 0 0.00013923)
(0.00545293 0 0.000127521)
(0.00528028 0 0.000116421)
(0.0051229 0 0.000105929)
(0.00497993 0 9.60394e-05)
(0.00485052 0 8.67386e-05)
(0.00473386 0 7.80089e-05)
(0.00462916 0 6.98288e-05)
(0.00453565 0 6.21729e-05)
(0.00445261 0 5.50138e-05)
(0.00437937 0 4.83215e-05)
(0.00431528 0 4.20644e-05)
(0.00425976 0 3.62093e-05)
(0.00421226 0 3.07217e-05)
(0.00417228 0 2.55659e-05)
(0.00413938 0 2.07054e-05)
(0.00411317 0 1.61025e-05)
(0.00409331 0 1.17186e-05)
(0.00407952 0 7.5142e-06)
(0.00407157 0 3.44968e-06)
(0.00406928 0 -5.15017e-07)
(0.00407257 0 -4.42463e-06)
(0.00408136 0 -8.32894e-06)
(0.00409569 0 -1.22801e-05)
(0.00411566 0 -1.63336e-05)
(0.00414146 0 -2.05504e-05)
(0.00417335 0 -2.49976e-05)
(0.00421171 0 -2.97505e-05)
(0.00425703 0 -3.48944e-05)
(0.00430991 0 -4.05271e-05)
(0.00437112 0 -4.67619e-05)
(0.00444159 0 -5.37314e-05)
(0.00452245 0 -6.15927e-05)
(0.00461507 0 -7.05333e-05)
(0.00472111 0 -8.07793e-05)
(0.00484258 0 -9.26059e-05)
(0.00498191 0 -0.000106351)
(0.00514205 0 -0.000122432)
(0.00532662 0 -0.000141368)
(0.00554004 0 -0.000163809)
(0.00578777 0 -0.000190565)
(0.00607657 0 -0.000222645)
(0.00641485 0 -0.000261288)
(0.0068131 0 -0.000307979)
(0.00728437 0 -0.000364418)
(0.00784478 0 -0.00043243)
(0.00851491 0 -0.000514254)
(0.0093233 0 -0.000615475)
(0.0103055 0 -0.00075542)
(0.0114754 0 -0.0009872)
(0.0128586 0 -0.00145293)
(0.0152825 0 -0.00282431)
(0.0228365 0 -0.00870509)
(0.0368783 0 -0.0317574)
(0.0412706 0 -0.080943)
(0.018069 0 -0.101663)
(-0.0114089 0 -0.103429)
(-0.0361612 0 -0.0837414)
(-0.03205 0 -0.0326541)
(-0.0173834 0 -0.00910451)
(-0.00953528 0 -0.0029397)
(-0.00710171 0 -0.00145887)
(-0.00577407 0 -0.000952303)
(-0.00466675 0 -0.00070822)
(-0.00374675 0 -0.000567971)
(-0.00299794 0 -0.000470224)
(-0.00238347 0 -0.00039213)
(-0.00187498 0 -0.000326993)
(-0.00145298 0 -0.000272312)
(-0.00110271 0 -0.000226188)
(-0.000812688 0 -0.000186848)
(-0.000574151 0 -0.000152691)
(-0.00038022 0 -0.000122428)
(-0.0002247 0 -9.54623e-05)
(-0.000104562 0 -7.19085e-05)
(-4.6888e-05 0 -4.71766e-05)
(-0.000268467 0 0.000431435)
(-0.000552483 0 0.00054961)
(-0.00104488 0 0.000627658)
(-0.00157354 0 0.000673687)
(-0.00211711 0 0.000689551)
(-0.00265829 0 0.000675989)
(-0.00317546 0 0.000634087)
(-0.00364634 0 0.000564781)
(-0.00404929 0 0.000468709)
(-0.0043632 0 0.000346403)
(-0.00456745 0 0.000198524)
(-0.00464204 0 2.60346e-05)
(-0.00456826 0 -0.000169748)
(-0.00432868 0 -0.000386435)
(-0.00390895 0 -0.000619863)
(-0.00329872 0 -0.000864113)
(-0.00249317 0 -0.00111162)
(-0.00149454 0 -0.00135363)
(-0.000309479 0 -0.00158124)
(0.00104704 0 -0.00178025)
(0.00253676 0 -0.00193603)
(0.00412826 0 -0.00204228)
(0.00578098 0 -0.00209608)
(0.00745378 0 -0.00209729)
(0.00910679 0 -0.00204838)
(0.010703 0 -0.00195411)
(0.0122099 0 -0.00182091)
(0.0136 0 -0.00165628)
(0.0148521 0 -0.00146823)
(0.0159509 0 -0.00126468)
(0.0168869 0 -0.00105312)
(0.0176564 0 -0.000840314)
(0.0182599 0 -0.000632073)
(0.0187026 0 -0.000433206)
(0.0189925 0 -0.000247463)
(0.0191404 0 -7.74731e-05)
(0.0191587 0 7.54632e-05)
(0.0190611 0 0.000211092)
(0.0188605 0 0.000329475)
(0.0185705 0 0.00043094)
(0.0182042 0 0.000516063)
(0.0177743 0 0.00058564)
(0.0172926 0 0.000640651)
(0.0167703 0 0.000682213)
(0.0162178 0 0.000711533)
(0.0156445 0 0.000729868)
(0.0150586 0 0.000738488)
(0.0144677 0 0.000738643)
(0.013878 0 0.000731537)
(0.0132953 0 0.000718313)
(0.012724 0 0.00070003)
(0.0121681 0 0.000677663)
(0.0116306 0 0.00065209)
(0.0111139 0 0.000624094)
(0.0106198 0 0.000594365)
(0.0101497 0 0.0005635)
(0.00970429 0 0.000532012)
(0.00928407 0 0.000500334)
(0.00888912 0 0.000468827)
(0.00851928 0 0.000437786)
(0.00817414 0 0.000407449)
(0.00785311 0 0.000378002)
(0.00755548 0 0.000349588)
(0.0072804 0 0.000322311)
(0.00702696 0 0.000296244)
(0.0067942 0 0.000271433)
(0.0065811 0 0.000247898)
(0.00638666 0 0.000225644)
(0.00620985 0 0.000204658)
(0.00604966 0 0.000184913)
(0.00590511 0 0.000166375)
(0.00577524 0 0.000148997)
(0.00565913 0 0.000132728)
(0.00555591 0 0.00011751)
(0.00546475 0 0.000103281)
(0.00538487 0 8.99729e-05)
(0.00531554 0 7.75174e-05)
(0.00525611 0 6.58413e-05)
(0.00520597 0 5.48697e-05)
(0.00516457 0 4.4525e-05)
(0.00513142 0 3.47277e-05)
(0.00510612 0 2.53964e-05)
(0.00508831 0 1.64474e-05)
(0.00507772 0 7.79583e-06)
(0.00507412 0 -6.44399e-07)
(0.0050774 0 -8.9659e-06)
(0.00508748 0 -1.72723e-05)
(0.00510439 0 -2.56747e-05)
(0.00512825 0 -3.42911e-05)
(0.00515927 0 -4.32499e-05)
(0.00519779 0 -5.26932e-05)
(0.00524425 0 -6.27801e-05)
(0.00529923 0 -7.36906e-05)
(0.00536348 0 -8.56313e-05)
(0.00543791 0 -9.88411e-05)
(0.00552365 0 -0.0001136)
(0.00562205 0 -0.000130239)
(0.00573477 0 -0.000149153)
(0.00586381 0 -0.000170821)
(0.00601159 0 -0.000195822)
(0.00618104 0 -0.000224873)
(0.00637571 0 -0.000258859)
(0.00659997 0 -0.000298891)
(0.00685917 0 -0.000346371)
(0.00715996 0 -0.000403083)
(0.00751068 0 -0.000471317)
(0.00792191 0 -0.000554044)
(0.00840738 0 -0.000655171)
(0.00898532 0 -0.000779955)
(0.00968093 0 -0.000935789)
(0.0105312 0 -0.00113409)
(0.011595 0 -0.00139587)
(0.0129678 0 -0.00176682)
(0.0148006 0 -0.0023486)
(0.0173786 0 -0.00336116)
(0.0214513 0 -0.00540577)
(0.0284145 0 -0.0106803)
(0.0359747 0 -0.0259077)
(0.0327075 0 -0.0582723)
(0.0150834 0 -0.0759345)
(-0.0080469 0 -0.0771515)
(-0.0265942 0 -0.0603355)
(-0.0299956 0 -0.0269077)
(-0.0220762 0 -0.0110947)
(-0.0148598 0 -0.00554482)
(-0.0106796 0 -0.00337023)
(-0.00806525 0 -0.00229757)
(-0.00623192 0 -0.00169219)
(-0.00488054 0 -0.00131542)
(-0.00385061 0 -0.00105505)
(-0.00304029 0 -0.000860189)
(-0.00238754 0 -0.000707564)
(-0.00185411 0 -0.000584753)
(-0.00141479 0 -0.000483831)
(-0.00105205 0 -0.000399178)
(-0.000753371 0 -0.000326602)
(-0.000509272 0 -0.000263003)
(-0.000311281 0 -0.000206251)
(-0.000153559 0 -0.000154504)
(-7.12804e-05 0 -0.0001052)
(-0.000306783 0 0.000844893)
(-0.000641765 0 0.00104428)
(-0.00120433 0 0.00118282)
(-0.0017988 0 0.00126309)
(-0.00240481 0 0.00128761)
(-0.0030041 0 0.00125791)
(-0.00357279 0 0.0011755)
(-0.00408619 0 0.00104169)
(-0.00452025 0 0.000857523)
(-0.00485139 0 0.000624013)
(-0.00505661 0 0.000342508)
(-0.00511376 0 1.50156e-05)
(-0.00500205 0 -0.000355597)
(-0.00470277 0 -0.000764217)
(-0.00420068 0 -0.00120275)
(-0.00348515 0 -0.00166004)
(-0.00255175 0 -0.00212204)
(-0.00140413 0 -0.00257255)
(-4.81369e-05 0 -0.00299455)
(0.00149184 0 -0.00336002)
(0.00317573 0 -0.00364508)
(0.00496732 0 -0.00383913)
(0.0068221 0 -0.0039368)
(0.00869529 0 -0.00393788)
(0.0105437 0 -0.00384696)
(0.0123275 0 -0.00367274)
(0.0140117 0 -0.00342691)
(0.0155672 0 -0.0031231)
(0.0169713 0 -0.00277575)
(0.0182076 0 -0.00239924)
(0.0192662 0 -0.00200716)
(0.0201424 0 -0.00161176)
(0.0208369 0 -0.00122369)
(0.0213545 0 -0.000851767)
(0.0217035 0 -0.000502919)
(0.0218947 0 -0.000182144)
(0.0219409 0 0.000107691)
(0.0218566 0 0.000365612)
(0.0216558 0 0.000591599)
(0.0213531 0 0.000786121)
(0.0209628 0 0.000950132)
(0.0204986 0 0.00108502)
(0.0199737 0 0.00119252)
(0.0194006 0 0.00127464)
(0.0187906 0 0.00133357)
(0.0181544 0 0.00137161)
(0.0175014 0 0.00139109)
(0.01684 0 0.00139434)
(0.0161777 0 0.00138358)
(0.0155209 0 0.00136096)
(0.0148749 0 0.00132847)
(0.0142445 0 0.00128794)
(0.0136332 0 0.00124106)
(0.0130441 0 0.0011893)
(0.0124794 0 0.00113401)
(0.0119409 0 0.00107632)
(0.0114295 0 0.00101723)
(0.0109461 0 0.000957587)
(0.0104909 0 0.000898099)
(0.0100639 0 0.000839347)
(0.00966476 0 0.000781805)
(0.0092929 0 0.000725846)
(0.00894761 0 0.000671761)
(0.00862803 0 0.000619765)
(0.00833319 0 0.00057001)
(0.00806204 0 0.000522596)
(0.00781348 0 0.000477575)
(0.0075864 0 0.000434964)
(0.00737965 0 0.000394747)
(0.00719211 0 0.000356881)
(0.00702266 0 0.000321303)
(0.00687022 0 0.000287933)
(0.00673375 0 0.000256675)
(0.00661224 0 0.000227421)
(0.00650476 0 0.000200056)
(0.00641039 0 0.000174454)
(0.00632832 0 0.000150483)
(0.00625778 0 0.000128007)
(0.00619805 0 0.000106882)
(0.00614851 0 8.69618e-05)
(0.00610861 0 6.80947e-05)
(0.00607784 0 5.01254e-05)
(0.00605581 0 3.28942e-05)
(0.00604217 0 1.62379e-05)
(0.00603669 0 -9.91279e-09)
(0.00603919 0 -1.60249e-05)
(0.0060496 0 -3.20013e-05)
(0.00606792 0 -4.81502e-05)
(0.00609429 0 -6.46965e-05)
(0.00612892 0 -8.18848e-05)
(0.00617219 0 -9.99853e-05)
(0.00622458 0 -0.0001193)
(0.00628672 0 -0.00014017)
(0.00635945 0 -0.000162987)
(0.00644376 0 -0.000188202)
(0.0065409 0 -0.000216344)
(0.00665237 0 -0.000248036)
(0.00677999 0 -0.000284024)
(0.00692595 0 -0.000325207)
(0.0070929 0 -0.000372678)
(0.00728402 0 -0.000427784)
(0.00750321 0 -0.000492201)
(0.00775519 0 -0.000568033)
(0.00804579 0 -0.000657961)
(0.00838224 0 -0.000765442)
(0.00877364 0 -0.000895013)
(0.00923163 0 -0.00105276)
(0.00977145 0 -0.0012471)
(0.0104136 0 -0.00149014)
(0.0111865 0 -0.00180026)
(0.0121311 0 -0.00220734)
(0.0133083 0 -0.00276381)
(0.0148081 0 -0.00356813)
(0.0167587 0 -0.00480937)
(0.0193369 0 -0.00684707)
(0.0227614 0 -0.0103922)
(0.0269219 0 -0.016956)
(0.0295385 0 -0.0291744)
(0.0250326 0 -0.0468507)
(0.0122669 0 -0.0579196)
(-0.00444352 0 -0.0587206)
(-0.0178589 0 -0.0482401)
(-0.0225285 0 -0.0301683)
(-0.0197821 0 -0.0175468)
(-0.0154418 0 -0.0106965)
(-0.0118757 0 -0.00696329)
(-0.00920166 0 -0.00481167)
(-0.00719433 0 -0.00350816)
(-0.00566834 0 -0.00267321)
(-0.00448699 0 -0.00210323)
(-0.00355294 0 -0.00169089)
(-0.00280049 0 -0.00137866)
(-0.00218582 0 -0.00113377)
(-0.00167909 0 -0.000936097)
(-0.00125944 0 -0.000772397)
(-0.00091198 0 -0.000633521)
(-0.000625467 0 -0.000513049)
(-0.000389596 0 -0.000406554)
(-0.000196497 0 -0.000310783)
(-9.07091e-05 0 -0.000224132)
(-0.000338812 0 0.00130664)
(-0.000708267 0 0.00158807)
(-0.00132362 0 0.00178378)
(-0.00196781 0 0.0018948)
(-0.00261987 0 0.00192358)
(-0.00326058 0 0.00187212)
(-0.00386442 0 0.00174224)
(-0.00440493 0 0.00153553)
(-0.00485626 0 0.00125338)
(-0.00519305 0 0.000897308)
(-0.00539052 0 0.000469435)
(-0.0054249 0 -2.70218e-05)
(-0.00527378 0 -0.000587291)
(-0.00491756 0 -0.00120319)
(-0.00434024 0 -0.00186234)
(-0.0035309 0 -0.00254802)
(-0.00248547 0 -0.00323935)
(-0.00120877 0 -0.00391209)
(0.000294997 0 -0.00453926)
(0.00198892 0 -0.00507614)
(0.00383412 0 -0.00549229)
(0.00578899 0 -0.00577305)
(0.00780554 0 -0.00591102)
(0.0098359 0 -0.00590642)
(0.0118343 0 -0.0057665)
(0.0137588 0 -0.00550444)
(0.0155734 0 -0.00513768)
(0.0172482 0 -0.00468627)
(0.0187602 0 -0.00417134)
(0.0200932 0 -0.0036138)
(0.0212374 0 -0.0030333)
(0.0221886 0 -0.00244755)
(0.0229478 0 -0.00187186)
(0.0235199 0 -0.00131896)
(0.0239133 0 -0.000798879)
(0.0241392 0 -0.000318955)
(0.0242101 0 0.000116243)
(0.0241411 0 0.000504822)
(0.0239465 0 0.00084654)
(0.0236412 0 0.00114191)
(0.0232403 0 0.00139218)
(0.0227581 0 0.00159925)
(0.0222085 0 0.00176555)
(0.0216045 0 0.00189394)
(0.0209583 0 0.00198755)
(0.0202812 0 0.00204972)
(0.0195834 0 0.00208382)
(0.018874 0 0.00209323)
(0.0181611 0 0.00208127)
(0.0174517 0 0.00205107)
(0.016752 0 0.00200559)
(0.016067 0 0.0019476)
(0.0154011 0 0.00187958)
(0.0147575 0 0.0018038)
(0.0141391 0 0.00172227)
(0.0135478 0 0.00163675)
(0.0129852 0 0.00154875)
(0.0124521 0 0.0014596)
(0.0119491 0 0.00137039)
(0.0114763 0 0.00128203)
(0.0110335 0 0.00119527)
(0.0106203 0 0.00111072)
(0.0102359 0 0.00102883)
(0.00987963 0 0.000949972)
(0.00955039 0 0.000874392)
(0.00924715 0 0.000802265)
(0.00896878 0 0.000733691)
(0.00871408 0 0.000668713)
(0.00848187 0 0.000607321)
(0.00827092 0 0.000549464)
(0.00808005 0 0.000495058)
(0.00790808 0 0.000443989)
(0.00775388 0 0.000396119)
(0.00761636 0 0.000351292)
(0.00749448 0 0.000309337)
(0.00738725 0 0.000270067)
(0.00729376 0 0.000233285)
(0.00721316 0 0.000198786)
(0.00714466 0 0.000166354)
(0.00708756 0 0.000135769)
(0.00704124 0 0.000106802)
(0.00700515 0 7.92156e-05)
(0.00697882 0 5.27692e-05)
(0.00696187 0 2.72136e-05)
(0.00695401 0 2.29433e-06)
(0.00695506 0 -2.22542e-05)
(0.0069649 0 -4.67226e-05)
(0.00698352 0 -7.14277e-05)
(0.00701104 0 -9.67088e-05)
(0.00704769 0 -0.000122935)
(0.00709383 0 -0.000150512)
(0.00714995 0 -0.000179893)
(0.00721672 0 -0.000211589)
(0.00729497 0 -0.000246184)
(0.00738577 0 -0.000284349)
(0.00749037 0 -0.000326868)
(0.00761032 0 -0.000374667)
(0.0077475 0 -0.000428843)
(0.00790412 0 -0.000490723)
(0.00808289 0 -0.000561914)
(0.00828703 0 -0.000644396)
(0.00852042 0 -0.000740627)
(0.00878778 0 -0.000853702)
(0.00909486 0 -0.000987569)
(0.00944873 0 -0.00114735)
(0.00985822 0 -0.00133981)
(0.0103344 0 -0.00157411)
(0.0108916 0 -0.001863)
(0.0115483 0 -0.00222488)
(0.0123288 0 -0.00268731)
(0.0132656 0 -0.00329339)
(0.0144005 0 -0.00411306)
(0.0157838 0 -0.00526312)
(0.0174642 0 -0.00693947)
(0.0194588 0 -0.00946391)
(0.02167 0 -0.0133493)
(0.023611 0 -0.0193535)
(0.0237311 0 -0.028184)
(0.0193697 0 -0.0386711)
(0.0101312 0 -0.0455577)
(-0.00154445 0 -0.0461279)
(-0.0112602 0 -0.039733)
(-0.0157872 0 -0.0291443)
(-0.0156576 0 -0.0200523)
(-0.0136166 0 -0.0137929)
(-0.0112857 0 -0.00970429)
(-0.00918362 0 -0.00703558)
(-0.00741919 0 -0.00526515)
(-0.00597681 0 -0.0040573)
(-0.00480494 0 -0.00320329)
(-0.00384891 0 -0.0025767)
(-0.00306287 0 -0.00210098)
(-0.00241155 0 -0.00172865)
(-0.00186856 0 -0.00142921)
(-0.00141436 0 -0.00118226)
(-0.00103441 0 -0.000973738)
(-0.000717395 0 -0.000793803)
(-0.000452475 0 -0.00063568)
(-0.000231205 0 -0.000494767)
(-0.000107506 0 -0.000369169)
(-0.000362064 0 0.00180049)
(-0.000754912 0 0.00216751)
(-0.00140734 0 0.0024197)
(-0.00208635 0 0.00255887)
(-0.00276998 0 0.00258802)
(-0.00343817 0 0.0025097)
(-0.00406413 0 0.00232612)
(-0.00462009 0 0.00203911)
(-0.00507888 0 0.00165034)
(-0.00541377 0 0.00116182)
(-0.00559859 0 0.00057647)
(-0.0056082 0 -0.000101184)
(-0.00541892 0 -0.000864232)
(-0.00501018 0 -0.00170114)
(-0.00436514 0 -0.002595)
(-0.00347242 0 -0.00352316)
(-0.00232812 0 -0.0044575)
(-0.000937364 0 -0.00536521)
(0.000696405 0 -0.00620645)
(0.00252253 0 -0.00691803)
(0.00450526 0 -0.00746614)
(0.00659688 0 -0.00783148)
(0.00874587 0 -0.00800486)
(0.0109012 0 -0.00798744)
(0.0130147 0 -0.00778989)
(0.015043 0 -0.00743055)
(0.0169493 0 -0.00693326)
(0.0187041 0 -0.006325)
(0.020285 0 -0.00563393)
(0.021677 0 -0.00488759)
(0.0228714 0 -0.00411172)
(0.0238652 0 -0.00332935)
(0.0246605 0 -0.00256031)
(0.025263 0 -0.00182099)
(0.0256816 0 -0.00112433)
(0.0259279 0 -0.000479863)
(0.0260145 0 0.000106224)
(0.0259561 0 0.000631066)
(0.0257675 0 0.00109407)
(0.0254636 0 0.00149572)
(0.0250594 0 0.00183748)
(0.0245697 0 0.00212171)
(0.0240083 0 0.00235152)
(0.0233887 0 0.00253056)
(0.0227233 0 0.00266289)
(0.0220237 0 0.0027528)
(0.0213003 0 0.00280474)
(0.0205626 0 0.00282313)
(0.019819 0 0.00281231)
(0.0190771 0 0.00277644)
(0.0183431 0 0.00271947)
(0.0176227 0 0.00264505)
(0.0169205 0 0.00255656)
(0.0162401 0 0.00245704)
(0.0155847 0 0.0023492)
(0.0149566 0 0.00223546)
(0.0143575 0 0.00211791)
(0.0137887 0 0.00199834)
(0.0132508 0 0.0018783)
(0.0127442 0 0.00175907)
(0.0122688 0 0.00164169)
(0.0118243 0 0.00152703)
(0.0114101 0 0.00141576)
(0.0110255 0 0.0013084)
(0.0106694 0 0.00120533)
(0.010341 0 0.00110682)
(0.010039 0 0.00101304)
(0.00976224 0 0.000924055)
(0.00950953 0 0.000839889)
(0.0092796 0 0.000760489)
(0.00907123 0 0.000685753)
(0.00888319 0 0.000615543)
(0.00871428 0 0.000549682)
(0.00856337 0 0.000487966)
(0.00842935 0 0.000430169)
(0.00831117 0 0.000376043)
(0.00820787 0 0.000325328)
(0.00811852 0 0.000277744)
(0.00804229 0 0.000233004)
(0.00797842 0 0.000190807)
(0.00792623 0 0.000150844)
(0.00788511 0 0.000112795)
(0.00785457 0 7.63306e-05)
(0.00783417 0 4.11115e-05)
(0.00782359 0 6.78986e-06)
(0.00782261 0 -2.6995e-05)
(0.00783109 0 -6.06332e-05)
(0.00784899 0 -9.45499e-05)
(0.0078764 0 -0.000129203)
(0.00791353 0 -0.000165088)
(0.00796072 0 -0.000202752)
(0.00801845 0 -0.000242799)
(0.00808736 0 -0.000285912)
(0.00816828 0 -0.000332865)
(0.00826221 0 -0.000384548)
(0.0083704 0 -0.000441994)
(0.00849435 0 -0.000506417)
(0.00863586 0 -0.000579256)
(0.00879706 0 -0.000662235)
(0.00898051 0 -0.000757442)
(0.00918923 0 -0.000867435)
(0.00942685 0 -0.000995381)
(0.00969768 0 -0.00114525)
(0.0100069 0 -0.0013221)
(0.0103607 0 -0.00153244)
(0.0107667 0 -0.00178485)
(0.0112341 0 -0.00209083)
(0.011774 0 -0.00246619)
(0.0124 0 -0.00293315)
(0.0131281 0 -0.0035238)
(0.0139764 0 -0.00428551)
(0.0149622 0 -0.00528927)
(0.0160947 0 -0.00664187)
(0.0173577 0 -0.00850114)
(0.0186738 0 -0.0110896)
(0.0198369 0 -0.0146942)
(0.0203741 0 -0.0196089)
(0.0193351 0 -0.0258674)
(0.0154708 0 -0.0324678)
(0.00871988 0 -0.0368038)
(0.000557228 0 -0.0372155)
(-0.00654074 0 -0.0332959)
(-0.0105504 0 -0.0267313)
(-0.0116362 0 -0.0203266)
(-0.0110609 0 -0.0152172)
(-0.00981646 0 -0.01143)
(-0.00840661 0 -0.00869339)
(-0.00705532 0 -0.00672414)
(-0.00584824 0 -0.00529413)
(-0.00480426 0 -0.00423728)
(-0.00391357 0 -0.00343891)
(-0.00315704 0 -0.0028216)
(-0.00251473 0 -0.00233311)
(-0.00196893 0 -0.00193771)
(-0.00150502 0 -0.00161052)
(-0.00111131 0 -0.0013339)
(-0.000778137 0 -0.00109525)
(-0.000495463 0 -0.000885728)
(-0.000255436 0 -0.000699326)
(-0.000119591 0 -0.00053312)
(-0.000376253 0 0.0023187)
(-0.000783669 0 0.00277444)
(-0.00145944 0 0.00308326)
(-0.00216016 0 0.00324885)
(-0.00286304 0 0.00327528)
(-0.00354732 0 0.00316588)
(-0.00418531 0 0.00292327)
(-0.00474827 0 0.00254953)
(-0.00520804 0 0.00204655)
(-0.00553678 0 0.00141676)
(-0.00570714 0 0.000663863)
(-0.00569268 0 -0.000206298)
(-0.0054685 0 -0.00118456)
(-0.00501281 0 -0.00225591)
(-0.00430764 0 -0.00339868)
(-0.00334085 0 -0.00458394)
(-0.00210847 0 -0.00577582)
(-0.00061365 0 -0.00693254)
(0.00113414 0 -0.00799514)
(0.00307853 0 -0.00888561)
(0.00518245 0 -0.00956612)
(0.00739255 0 -0.0100125)
(0.00965317 0 -0.0102141)
(0.0119097 0 -0.0101739)
(0.0141115 0 -0.00990682)
(0.016214 0 -0.00943746)
(0.01818 0 -0.00879698)
(0.019981 0 -0.00802008)
(0.0215962 0 -0.00714241)
(0.0230125 0 -0.00619844)
(0.0242235 0 -0.00522001)
(0.0252283 0 -0.00423535)
(0.0260305 0 -0.00326853)
(0.0266376 0 -0.00233934)
(0.0270595 0 -0.00146326)
(0.0273083 0 -0.000651706)
(0.0273972 0 8.77801e-05)
(0.0273404 0 0.000751516)
(0.0271527 0 0.0013385)
(0.0268491 0 0.00184913)
(0.0264442 0 0.00228511)
(0.0259527 0 0.00264926)
(0.0253883 0 0.0029453)
(0.0247642 0 0.00317767)
(0.0240928 0 0.00335132)
(0.0233854 0 0.00347151)
(0.0226525 0 0.00354365)
(0.0219036 0 0.00357321)
(0.0211471 0 0.00356552)
(0.0203906 0 0.00352575)
(0.0196405 0 0.00345878)
(0.0189026 0 0.00336918)
(0.0181816 0 0.00326118)
(0.0174814 0 0.00313859)
(0.0168055 0 0.00300487)
(0.0161562 0 0.00286307)
(0.0155355 0 0.00271586)
(0.0149449 0 0.00256559)
(0.0143852 0 0.00241421)
(0.013857 0 0.00226342)
(0.0133604 0 0.0021146)
(0.0128951 0 0.00196889)
(0.0124607 0 0.00182718)
(0.0120566 0 0.00169019)
(0.0116819 0 0.00155845)
(0.0113356 0 0.00143234)
(0.0110167 0 0.0013121)
(0.0107239 0 0.00119787)
(0.0104561 0 0.00108969)
(0.010212 0 0.000987518)
(0.0099905 0 0.000891257)
(0.00979021 0 0.00080074)
(0.00960999 0 0.000715762)
(0.00944865 0 0.000636074)
(0.00930506 0 0.000561399)
(0.00917815 0 0.00049143)
(0.00906691 0 0.000425839)
(0.00897038 0 0.000364279)
(0.00888769 0 0.000306385)
(0.00881804 0 0.000251779)
(0.00876071 0 0.000200068)
(0.00871507 0 0.000150845)
(0.00868057 0 0.000103693)
(0.00865675 0 5.81789e-05)
(0.00864325 0 1.38583e-05)
(0.00863981 0 -2.9728e-05)
(0.00864626 0 -7.30702e-05)
(0.00866254 0 -0.000116702)
(0.0086887 0 -0.000161201)
(0.00872491 0 -0.000207189)
(0.00877146 0 -0.000255349)
(0.0088288 0 -0.000306438)
(0.00889751 0 -0.000361301)
(0.00897834 0 -0.000420896)
(0.00907225 0 -0.000486319)
(0.00918036 0 -0.000558833)
(0.00930405 0 -0.000639917)
(0.00944496 0 -0.000731313)
(0.00960501 0 -0.000835096)
(0.00978646 0 -0.000953766)
(0.00999198 0 -0.00109036)
(0.0102246 0 -0.00124862)
(0.0104881 0 -0.0014332)
(0.0107865 0 -0.00164996)
(0.0111249 0 -0.00190638)
(0.0115087 0 -0.00221216)
(0.0119444 0 -0.00258009)
(0.0124392 0 -0.00302725)
(0.0130002 0 -0.00357688)
(0.0136344 0 -0.004261)
(0.0143457 0 -0.00512401)
(0.0151306 0 -0.00622747)
(0.0159696 0 -0.00765525)
(0.0168108 0 -0.00951689)
(0.0175436 0 -0.0119433)
(0.0179587 0 -0.0150634)
(0.0176934 0 -0.0189379)
(0.0161935 0 -0.0233932)
(0.012892 0 -0.0277035)
(0.00786694 0 -0.0304861)
(0.00203692 0 -0.0307825)
(-0.00323625 0 -0.0283505)
(-0.0066605 0 -0.0241444)
(-0.00822819 0 -0.0196285)
(-0.00849492 0 -0.015622)
(-0.0080334 0 -0.0123541)
(-0.00722893 0 -0.00979242)
(-0.00630798 0 -0.00781886)
(-0.00539215 0 -0.00630382)
(-0.00453915 0 -0.00513426)
(-0.00377097 0 -0.00422116)
(-0.00309141 0 -0.00349781)
(-0.00249606 0 -0.00291528)
(-0.00197739 0 -0.00243783)
(-0.00152735 0 -0.00203928)
(-0.00113855 0 -0.0017003)
(-0.000804155 0 -0.00140664)
(-0.000516021 0 -0.00114792)
(-0.000267732 0 -0.000916929)
(-0.000125924 0 -0.000709455)
(-0.000382653 0 0.00285105)
(-0.000796921 0 0.00339751)
(-0.00148391 0 0.00376304)
(-0.00219485 0 0.00395384)
(-0.00290645 0 0.00397536)
(-0.00359749 0 0.00383187)
(-0.00423967 0 0.00352644)
(-0.00480362 0 0.00306134)
(-0.00526039 0 0.00243857)
(-0.0055812 0 0.00166083)
(-0.00573758 0 0.00073249)
(-0.00570173 0 -0.000339369)
(-0.00544739 0 -0.00154336)
(-0.00495119 0 -0.00286103)
(-0.00419359 0 -0.00426581)
(-0.00316122 0 -0.00572214)
(-0.00184979 0 -0.00718571)
(-0.000258693 0 -0.00860466)
(0.00159148 0 -0.00989493)
(0.00364508 0 -0.0109682)
(0.00585934 0 -0.0117802)
(0.00817548 0 -0.012302)
(0.0105329 0 -0.012522)
(0.0128728 0 -0.0124457)
(0.0151416 0 -0.0120938)
(0.0172935 0 -0.0114986)
(0.0192917 0 -0.0106997)
(0.021109 0 -0.00974043)
(0.0227271 0 -0.00866468)
(0.0241358 0 -0.00751413)
(0.0253317 0 -0.00632676)
(0.0263168 0 -0.00513578)
(0.0270976 0 -0.00396917)
(0.0276833 0 -0.00284965)
(0.0280856 0 -0.00179481)
(0.0283176 0 -0.000817484)
(0.0283932 0 7.3928e-05)
(0.0283262 0 0.000875221)
(0.0281315 0 0.00158502)
(0.0278239 0 0.00220372)
(0.0274176 0 0.00273329)
(0.0269267 0 0.00317701)
(0.0263646 0 0.0035393)
(0.025744 0 0.00382534)
(0.0250768 0 0.00404095)
(0.0243737 0 0.00419231)
(0.023645 0 0.00428579)
(0.0228996 0 0.00432779)
(0.0221458 0 0.00432462)
(0.0213908 0 0.00428236)
(0.0206411 0 0.00420681)
(0.0199022 0 0.00410339)
(0.0191789 0 0.00397712)
(0.0184751 0 0.0038326)
(0.0177942 0 0.00367397)
(0.0171389 0 0.00350492)
(0.0165112 0 0.00332872)
(0.0159126 0 0.00314819)
(0.0153442 0 0.00296578)
(0.0148067 0 0.00278357)
(0.0143003 0 0.00260329)
(0.0138249 0 0.00242637)
(0.0133803 0 0.00225396)
(0.0129658 0 0.00208697)
(0.0125808 0 0.0019261)
(0.0122244 0 0.00177184)
(0.0118955 0 0.00162455)
(0.0115931 0 0.00148443)
(0.011316 0 0.00135157)
(0.011063 0 0.00122595)
(0.0108329 0 0.00110746)
(0.0106245 0 0.000995938)
(0.0104367 0 0.000891148)
(0.0102682 0 0.000792806)
(0.0101179 0 0.000700587)
(0.00998469 0 0.000614129)
(0.00986763 0 0.000533044)
(0.00976572 0 0.000456914)
(0.00967806 0 0.000385302)
(0.00960384 0 0.000317752)
(0.00954231 0 0.00025379)
(0.00949282 0 0.000192923)
(0.00945479 0 0.000134645)
(0.00942775 0 7.84298e-05)
(0.00941128 0 2.37373e-05)
(0.0094051 0 -2.99906e-05)
(0.00940903 0 -8.33431e-05)
(0.00942294 0 -0.00013696)
(0.00944685 0 -0.000191531)
(0.00948089 0 -0.000247802)
(0.00952528 0 -0.000306586)
(0.00958041 0 -0.000368779)
(0.00964677 0 -0.000435382)
(0.00972503 0 -0.000507516)
(0.00981601 0 -0.00058646)
(0.00992069 0 -0.000673681)
(0.0100403 0 -0.00077088)
(0.0101761 0 -0.000880051)
(0.0103299 0 -0.00100355)
(0.0105034 0 -0.00114419)
(0.0106988 0 -0.00130536)
(0.0109186 0 -0.0014912)
(0.0111654 0 -0.00170678)
(0.0114423 0 -0.00195842)
(0.0117526 0 -0.00225406)
(0.0120997 0 -0.00260376)
(0.012487 0 -0.00302048)
(0.0129172 0 -0.00352099)
(0.013392 0 -0.00412721)
(0.01391 0 -0.00486779)
(0.0144644 0 -0.00578008)
(0.015038 0 -0.00691183)
(0.0155961 0 -0.00832188)
(0.0160743 0 -0.0100772)
(0.016363 0 -0.0122424)
(0.0162893 0 -0.0148542)
(0.0156027 0 -0.0178712)
(0.0139921 0 -0.021083)
(0.011213 0 -0.0239891)
(0.00738363 0 -0.0258243)
(0.00308013 0 -0.0260372)
(-0.000901874 0 -0.024506)
(-0.00379491 0 -0.0217304)
(-0.00547581 0 -0.0185159)
(-0.00618557 0 -0.0154201)
(-0.00623896 0 -0.012698)
(-0.00590023 0 -0.0104185)
(-0.00535621 0 -0.00855911)
(-0.00472697 0 -0.00706062)
(-0.00408379 0 -0.0058563)
(-0.00346566 0 -0.00488488)
(-0.00289175 0 -0.00409512)
(-0.00236979 0 -0.00344605)
(-0.0019013 0 -0.0029056)
(-0.00148473 0 -0.00244896)
(-0.00111735 0 -0.00205692)
(-0.000795688 0 -0.00171472)
(-0.00051406 0 -0.00141117)
(-0.000268025 0 -0.00113815)
(-0.000126474 0 -0.000890183)
(-0.000382504 0 0.0033876)
(-0.000796851 0 0.00402566)
(-0.00148432 0 0.00444789)
(-0.00219535 0 0.00466321)
(-0.00290656 0 0.00467869)
(-0.00359653 0 0.00449955)
(-0.00423672 0 0.00412928)
(-0.00479737 0 0.0035702)
(-0.00524895 0 0.00282423)
(-0.00556182 0 0.00189414)
(-0.00570636 0 0.000784704)
(-0.00565327 0 -0.000495961)
(-0.00537465 0 -0.00193443)
(-0.00484513 0 -0.00350895)
(-0.00404305 0 -0.005188)
(-0.00295326 0 -0.00692905)
(-0.00157067 0 -0.00867844)
(0.000109829 0 -0.0103724)
(0.00205492 0 -0.0118971)
(0.00421142 0 -0.0131565)
(0.00652895 0 -0.014098)
(0.00894261 0 -0.0146874)
(0.0113857 0 -0.0149129)
(0.0137946 0 -0.014784)
(0.0161123 0 -0.0143286)
(0.0182919 0 -0.0135884)
(0.0202972 0 -0.012613)
(0.0221033 0 -0.0114558)
(0.0236952 0 -0.0101694)
(0.0250663 0 -0.00880309)
(0.0262173 0 -0.00740104)
(0.027154 0 -0.00600116)
(0.0278859 0 -0.00463489)
(0.0284252 0 -0.00332731)
(0.0287855 0 -0.00209753)
(0.0289814 0 -0.000959187)
(0.0290277 0 7.90313e-05)
(0.0289379 0 0.00101282)
(0.0287272 0 0.0018406)
(0.0284098 0 0.00256289)
(0.0279997 0 0.00318206)
(0.0275101 0 0.00370197)
(0.0269538 0 0.00412772)
(0.0263426 0 0.00446533)
(0.0256876 0 0.00472144)
(0.0249989 0 0.00490311)
(0.0242858 0 0.00501761)
(0.0235568 0 0.00507223)
(0.0228195 0 0.00507415)
(0.0220806 0 0.0050303)
(0.0213462 0 0.00494729)
(0.0206216 0 0.00483133)
(0.0199112 0 0.00468819)
(0.0192189 0 0.00452316)
(0.018548 0 0.00434103)
(0.0179011 0 0.00414608)
(0.0172802 0 0.00394213)
(0.0166871 0 0.00373251)
(0.0161227 0 0.0035201)
(0.015588 0 0.00330736)
(0.0150831 0 0.00309638)
(0.0146083 0 0.00288888)
(0.0141634 0 0.00268626)
(0.0137478 0 0.00248964)
(0.0133611 0 0.0022999)
(0.0130023 0 0.00211767)
(0.0126707 0 0.00194341)
(0.0123652 0 0.0017774)
(0.0120848 0 0.00161979)
(0.0118283 0 0.00147059)
(0.0115945 0 0.00132971)
(0.0113825 0 0.00119698)
(0.0111909 0 0.00107215)
(0.0110187 0 0.000954905)
(0.0108647 0 0.000844881)
(0.010728 0 0.000741668)
(0.0106074 0 0.00064482)
(0.0105021 0 0.000553856)
(0.0104112 0 0.00046827)
(0.0103338 0 0.000387533)
(0.0102692 0 0.00031109)
(0.0102167 0 0.00023837)
(0.0101757 0 0.000168778)
(0.0101458 0 0.0001017)
(0.0101265 0 3.65035e-05)
(0.0101175 0 -2.7467e-05)
(0.0101185 0 -9.08951e-05)
(0.0101295 0 -0.000154519)
(0.0101504 0 -0.000219137)
(0.0101812 0 -0.000285605)
(0.0102221 0 -0.000354857)
(0.0102734 0 -0.000427914)
(0.0103355 0 -0.000505911)
(0.010409 0 -0.000590112)
(0.0104945 0 -0.00068195)
(0.0105928 0 -0.000783055)
(0.0107049 0 -0.000895304)
(0.0108318 0 -0.00102088)
(0.0109749 0 -0.00116232)
(0.0111354 0 -0.00132267)
(0.0113151 0 -0.0015055)
(0.0115155 0 -0.00171515)
(0.0117384 0 -0.00195687)
(0.0119856 0 -0.00223706)
(0.0122587 0 -0.00256361)
(0.0125589 0 -0.00294631)
(0.0128869 0 -0.00339737)
(0.0132419 0 -0.00393207)
(0.0136206 0 -0.00456946)
(0.0140158 0 -0.00533321)
(0.0144139 0 -0.00625207)
(0.0147908 0 -0.00735982)
(0.0151065 0 -0.00869344)
(0.0152982 0 -0.010288)