/*--------------------------------*- C++ -*----------------------------------*\
  =========                 |
  \\      /  F ield         | OpenFOAM: The Open Source CFD Toolbox
   \\    /   O peration     | Website:  https://openfoam.org
    \\  /    A nd           | Version:  13
     \\/     M anipulation  |
\*---------------------------------------------------------------------------*/
FoamFile
{
    format      ascii;
    class       volScalarField;
    location    "134.831886";
    object      T;
}
// * * * * * * * * * * * * * * * * * * * * * * * * * * * * * * * * * * * * * //

dimensions      [0 0 0 1 0 0 0];

internalField   nonuniform List<scalar> 
5712
(
992.493
992.303
991.983
991.689
991.197
990.902
990.086
989.849
990.284
990.007
991.155
990.873
991.781
991.513
992.246
992.043
990.977
990.603
990.472
989.955
989.631
989.148
989.171
988.56
993.198
994.35
992.993
994.066
992.72
993.821
992.401
993.438
991.633
992.219
991.096
991.837
993.168
992.537
989.84
988.911
989.341
988.651
988.619
987.842
988.023
987.435
990.994
990.022
990.437
989.704
991.905
990.962
995.665
996.435
995.116
995.911
995.131
996.099
994.488
995.373
994.351
995.665
993.378
994.589
992.631
993.825
991.79
993.002
990.719
990.555
989.912
989.839
988.936
988.721
988.304
988.087
991.458
991.708
992.416
992.476
989.231
989.244
988.616
988.75
987.732
987.553
987.193
987.095
990.677
991.071
989.987
990.557
992.971
994.435
993.56
995.216
994.015
995.522
994.37
996.096
992.114
993.533
992.895
994.516
991.362
992.756
992.374
993.968
997.512
999.217
997.792
999.491
997.014
998.595
997.526
999.143
996.165
997.373
997.069
998.397
991.872
989.758
993.788
995.233
996.787
990.038
992.272
994.55
996.097
997.787
989.521
991.513
993.443
995.269
997.048
1000.79
1001.54
1001.68
1002.35
999.996
1000.86
1001.15
1001.87
998.614
999.578
1000.23
1001.09
990.501
991.26
992.944
993.993
995.192
996.288
996.992
998.084
999.382
1000.49
989.861
990.473
992.092
993.194
994.188
995.452
996.275
997.648
998.905
1000.36
991.103
992.349
990.209
991.312
988.915
989.244
988.121
988.287
992.425
993.91
993.301
994.877
989.447
990.557
988.961
990.019
987.481
987.636
987.023
987.128
991.626
993.142
991.134
992.615
994.949
996.763
998.074
1000.29
995.651
997.553
998.537
1000.71
994.298
996.057
997.628
999.811
993.683
995.46
996.979
999.045
1001.72
1002
1002.6
1001.9
1001.97
1002.51
1001.21
1001.57
1002.2
1001.51
1001.62
1002.2
1000.16
1000.66
1001.36
1000.93
1001.12
1001.78
992.193
993.267
994.417
995.104
996.033
997.043
997.315
998.104
998.986
998.91
999.561
1000.4
1000.47
1000.76
1001.53
991.333
992.531
993.83
994.652
995.906
997.19
996.929
998.024
999.167
998.771
999.568
1000.57
1000.46
1000.85
1001.73
987.234
986.847
986.895
986.399
988.316
987.836
987.924
987.332
986.965
986.126
986.872
986.09
986.744
985.994
986.579
985.874
986.04
986.363
985.841
986.22
985.862
985.595
986.014
985.567
986.86
986.357
985.824
985.406
985.531
985.128
985.442
985.032
985.284
984.538
985.424
984.717
985.192
984.42
985.23
984.51
985.113
984.265
984.938
984.156
984.806
984.11
984.455
983.87
986.316
985.971
985.881
985.491
987.454
987.152
986.938
986.608
985.137
984.673
985.516
985.094
985.452
985.074
985.024
984.705
986.446
986.138
985.97
985.724
984.763
984.307
984.373
983.981
984.51
983.827
984.128
983.708
984.814
984.089
984.495
984.015
984.207
983.595
983.806
983.442
983.87
983.347
983.523
983.211
985.286
985.619
984.606
984.96
985.288
985.641
984.561
984.929
985.29
985.61
984.489
984.821
986.622
987.965
985.775
985.112
984.398
988.221
986.89
986.091
985.441
984.691
987.724
986.419
985.483
984.848
984.32
986.212
987.037
985.564
986.366
986.177
986.962
985.472
986.244
986.075
986.815
985.295
986.015
988.552
989.175
987.143
987.779
986.332
986.988
985.716
986.386
985.013
985.692
987.924
988.28
986.587
986.947
985.679
986.116
985.09
985.633
984.63
985.313
985.876
985.979
985.382
985.342
987.094
987.156
986.497
986.373
984.66
984.802
985.082
985.345
985.004
984.851
984.638
984.446
986.033
985.801
985.62
985.34
984.321
984.365
983.994
984.004
984.204
984.539
983.975
984.521
984.592
985.03
984.278
984.902
983.888
984.134
983.713
984.188
983.623
983.832
983.482
983.894
988.163
989.281
990.333
987.756
989.019
990.075
988.017
989.149
990.225
987.577
988.849
989.951
987.805
988.914
990.007
987.286
988.619
989.795
990.025
991.094
992.254
988.651
989.762
990.948
987.878
989.039
990.247
987.333
988.492
989.659
986.969
988.371
989.653
988.948
990.102
991.415
987.653
988.832
990.151
986.931
988.184
989.544
986.599
987.922
989.294
986.652
988.122
989.531
984.199
984.639
985.879
988.199
984.407
984.882
986.165
988.507
984.11
984.569
985.812
988.155
984.244
984.752
986.047
988.397
983.992
984.478
985.669
987.942
983.943
984.493
985.766
988.088
983.983
984.598
985.963
988.344
983.853
984.545
985.966
988.363
983.716
984.303
985.546
987.846
983.757
984.388
985.523
987.591
983.912
984.435
985.557
987.691
983.977
984.541
985.594
987.541
983.557
984.208
985.55
987.935
983.565
984.255
985.458
987.575
983.395
984.108
985.497
987.871
983.398
984.14
985.379
987.487
984.234
984.623
985.748
987.93
984.525
984.848
985.805
987.71
984.21
984.611
985.721
987.89
984.514
984.853
985.804
987.692
984.175
984.603
985.676
987.782
984.454
984.831
985.784
987.65
984.166
984.63
985.648
987.629
984.398
984.817
985.758
987.571
984.196
984.699
985.67
987.483
984.977
985.241
986.099
987.455
985.485
985.711
986.589
987.859
984.922
985.211
986.075
987.429
985.427
985.683
986.572
987.847
984.821
985.158
986.044
987.407
985.326
985.635
986.547
987.825
984.675
985.077
985.983
987.352
985.189
985.564
986.505
987.793
984.485
984.971
985.91
987.294
985.027
985.483
986.459
987.762
984.12
984.765
985.811
987.248
984.608
985.243
986.309
987.66
984.299
984.869
985.863
987.275
984.817
985.364
986.385
987.71
983.958
984.669
985.763
987.226
984.416
985.129
986.24
987.606
983.803
984.569
985.696
987.171
984.24
985.018
986.168
987.549
991.764
994.649
997.118
999.137
1000.7
991.944
994.798
997.261
999.277
1000.84
991.743
994.639
997.112
999.132
1000.7
991.912
994.778
997.245
999.263
1000.83
991.704
994.621
997.1
999.123
1000.69
991.783
994.666
997.14
999.162
1000.73
991.855
994.742
997.219
999.243
1000.81
991.814
994.711
997.196
999.225
1000.79
991.679
994.607
997.091
999.116
1000.68
991.827
994.822
997.315
999.341
1000.91
991.711
994.659
997.144
999.168
1000.73
991.873
994.871
997.362
999.386
1000.95
991.677
994.608
997.096
999.123
1000.69
991.844
994.845
997.342
999.37
1000.94
991.634
994.579
997.074
999.106
1000.67
991.834
994.849
997.353
999.384
1000.95
991.784
994.718
997.193
999.212
1000.77
991.998
994.976
997.454
999.471
1001.03
991.78
994.723
997.201
999.221
1000.78
991.993
994.976
997.457
999.475
1001.04
991.784
994.745
997.228
999.25
1000.81
991.995
994.988
997.472
999.491
1001.05
991.848
994.838
997.327
999.349
1000.91
992.032
995.034
997.52
999.541
1001.1
991.976
994.977
997.467
999.489
1001.05
1005.38
1005.87
1005.16
1005.66
1004.77
1005.33
1004.27
1004.92
1003.78
1004.53
1003.02
1003.9
1003.41
1004.27
1002.63
1003.48
1002.23
1003
1010.9
1016.98
1022.12
1026.13
1028.88
1010.81
1016.93
1022.13
1026.17
1028.96
1010.8
1016.93
1022.09
1026.11
1028.86
1010.72
1016.9
1022.1
1026.16
1028.95
1010.61
1016.82
1022.01
1026.05
1028.81
1010.54
1016.79
1022.03
1026.11
1028.91
1010.35
1016.67
1021.91
1025.97
1028.75
1010.3
1016.65
1021.93
1026.03
1028.84
1010.05
1016.47
1021.77
1025.87
1028.65
1010.04
1016.48
1021.81
1025.94
1028.76
1009.39
1015.98
1021.4
1025.57
1028.39
1009.45
1016.04
1021.48
1025.67
1028.52
1009.72
1016.23
1021.59
1025.73
1028.53
1009.76
1016.28
1021.67
1025.83
1028.66
1009.06
1015.72
1021.19
1025.4
1028.23
1009.1
1015.77
1021.26
1025.49
1028.35
1008.72
1015.45
1020.98
1025.22
1028.07
1008.71
1015.47
1021.02
1025.29
1028.17
986.094
986.868
987.495
986.61
987.646
987.535
987.51
987.36
987.777
987.569
988.804
988.558
989.322
989.045
988.548
988.317
988.238
988.081
988.167
988.045
986.622
986.374
988.385
989.22
989.516
989.58
988.811
988.681
989.69
988.434
990.54
991.846
988.59
989.01
990.011
988.835
989.307
989.357
987.821
987.665
988.159
987.943
987.721
987.486
987.689
988.009
989.132
988.899
988.531
988.302
986.967
986.615
987.134
986.837
987.145
987.273
987.77
988.493
987.77
985.254
984.542
984.228
984.241
984.594
985.372
984.788
984.52
984.596
985.057
987.728
987.419
987.383
987.641
988.205
988.588
988.307
988.299
988.578
989.153
988.874
988.581
988.56
988.827
989.395
988.949
988.668
988.661
988.94
989.514
988.161
987.86
987.833
988.096
988.662
987.184
986.266
985.776
985.658
985.904
988.096
987.108
986.59
986.472
986.763
987.385
986.703
986.331
986.332
986.755
989.07
988.123
987.645
987.571
987.937
990.41
989.44
988.956
988.879
989.246
987.772
987.287
987.085
987.215
987.711
988.049
987.434
987.119
987.166
987.617
989.081
988.489
988.194
988.255
988.713
988.075
987.65
987.501
987.67
988.187
988.497
988.02
987.823
987.957
988.454
988.613
988.202
988.066
988.244
988.765
986.456
985.675
985.27
985.211
985.512
986.745
986.175
985.896
985.964
986.424
987.385
986.945
986.784
986.943
987.455
987.206
986.807
986.684
986.873
987.401
986.921
986.459
986.276
986.42
986.923
986.734
986.32
986.184
986.362
986.885
986.991
986.637
986.558
986.781
987.328
987.316
986.966
986.89
987.115
987.663
988.446
988.101
988.028
988.255
988.802
988.234
987.913
987.866
988.113
988.67
987.809
987.424
987.314
987.512
988.044
987.603
987.246
987.163
987.382
987.926
985.643
984.914
984.575
984.567
984.897
985.68
985.129
984.882
984.974
985.447
986.049
985.405
985.079
985.095
985.479
986.011
985.535
985.343
985.479
985.978
986.368
985.932
985.776
985.939
986.453
986.374
985.826
985.565
985.645
986.111
987.065
986.703
986.616
986.832
987.376
987.825
987.502
987.453
987.699
988.257
987.044
986.657
986.547
986.745
987.278
986.722
987.116
986.755
987.191
985.707
986.164
985.689
986.094
986.791
986.843
987.214
987.13
985.718
985.74
986.141
986.015
987.787
988.825
988.138
989.133
987.792
988.733
988.206
989.128
988.227
987.86
988.012
987.77
988.591
988.96
987.731
988.173
987.538
988.03
986.695
987.163
986.42
986.878
988.73
989.207
988.436
988.991
989.484
990.067
989.767
990.575
990.03
990.796
989.704
990.669
990.049
990.9
989.542
990.859
989.773
990.937
990.259
991.452
990.936
992.157
987.166
987.426
987.368
987.667
985.825
985.906
986.043
986.112
988.634
989.402
988.457
989.15
987.693
987.959
988.114
988.321
986.36
986.378
986.746
986.701
988.964
989.707
989.424
990.103
989.942
991.404
991.195
992.865
989.831
991.411
990.981
992.745
990.258
991.655
991.491
993.113
990.748
992.126
991.906
993.5
989.859
990.362
990.763
991.555
989.787
990.198
990.904
991.662
989.647
989.868
991.155
991.779
987.116
985.731
988.471
989.915
991.738
985.686
987.005
988.358
989.883
992.067
985.797
987.285
988.993
990.855
992.769
991.164
991.506
993.611
994.315
990.789
991.132
993.461
994.164
990.232
990.512
993.278
993.986
985.709
985.883
987.116
987.33
988.582
988.802
990.345
990.635
993.504
994.263
985.795
985.969
987.432
987.892
989.292
989.885
991.445
992.164
994.349
995.276
987.804
988.612
988.013
988.839
985.94
985.981
986.115
986.103
990.115
991.321
989.852
990.994
988.189
989.141
988.548
989.565
986.326
986.368
986.643
986.718
990.298
991.655
990.699
992.139
992.628
994.206
995.827
997.843
992.219
993.747
995.257
997.14
992.937
994.573
996.308
998.387
993.223
994.969
996.559
998.6
991.608
991.887
993.797
993.805
991.249
991.56
993.702
993.676
990.714
991.175
993.603
993.596
986.253
986.917
987.735
988.359
989.155
989.691
990.914
991.414
993.767
993.708
986.331
987.042
988.512
989.162
990.425
990.899
992.35
992.528
994.321
994.107
984.01
983.978
984.42
984.243
984.772
984.739
985.205
985.019
983.468
983.072
983.854
983.444
983.482
983.116
983.899
983.506
983.83
983.474
983.784
983.517
983.199
983.534
984.626
985.084
985.398
985.847
984.33
984.853
984.177
984.639
984.018
984.493
982.823
982.639
983.184
982.979
982.834
982.611
983.21
982.955
982.872
982.578
983.157
982.819
983.592
983.205
984.009
983.54
983.837
983.798
984.03
983.931
984.699
984.676
984.908
984.847
983.438
983.304
983.264
983.199
984.313
984.134
984.649
984.388
985.207
985.083
985.565
985.369
983.704
983.477
984.02
983.702
983.005
982.676
982.933
982.743
982.85
982.578
982.849
982.687
983.254
982.864
983.08
982.853
983.549
983.097
983.277
983.013
982.668
982.734
982.509
982.617
982.707
982.778
982.515
982.633
982.788
982.848
982.54
982.646
983.762
984.609
983.203
982.82
982.594
984.617
983.806
983.258
982.877
982.67
984.588
983.745
983.17
982.836
982.694
982.999
983.458
982.935
983.433
983.003
983.431
982.912
983.39
983.018
983.398
982.878
983.316
984.615
984.786
983.806
984.022
983.303
983.58
982.975
983.3
982.846
983.244
984.532
984.584
983.705
983.79
983.177
983.353
982.901
983.182
982.845
983.24
983.666
983.603
983.82
983.668
984.531
984.394
984.717
984.47
983.278
983.297
983.154
983.243
984.072
983.852
984.328
984.118
984.99
984.676
985.274
984.974
983.491
983.462
983.718
983.707
982.998
983.198
982.981
983.358
982.906
983.161
982.892
983.298
983.156
983.331
983.113
983.494
983.369
983.558
983.282
983.67
984.017
984.538
984.156
984.773
983.952
984.511
984.1
984.754
983.894
984.509
984.012
984.769
985.155
985.822
984.433
985.119
984.018
984.713
983.785
984.5
983.945
984.834
984.87
985.64
984.137
984.947
983.798
984.65
983.746
984.637
984.019
985.025
982.884
983.754
985.276
987.792
983.199
984.067
985.607
988.128
982.862
983.728
985.244
987.779
983.164
984.022
985.548
988.061
982.845
983.705
985.144
987.597
983.033
983.877
985.341
987.8
983.372
984.184
985.677
988.148
983.631
984.394
985.861
988.291
982.927
983.767
985.172
987.585
983.082
983.928
985.195
987.348
982.88
983.737
985.075
987.364
983.052
983.915
985.159
987.235
983.055
983.865
985.307
987.761
983.151
983.972
985.252
987.415
983.221
983.989
985.413
987.81
983.258
984.044
985.309
987.431
982.782
983.65
985.086
987.481
982.929
983.79
985.084
987.21
982.801
983.667
985.081
987.461
982.959
983.821
985.104
987.21
982.849
983.713
985.073
987.383
982.997
983.861
985.128
987.202
982.943
983.808
985.089
987.258
983.05
983.917
985.151
987.162
983.075
983.945
985.153
987.128
983.27
984.126
985.343
986.881
983.716
984.571
985.809
987.244
983.267
984.127
985.339
986.872
983.715
984.575
985.812
987.248
983.272
984.137
985.352
986.887
983.721
984.589
985.828
987.257
983.279
984.152
985.354
986.884
983.728
984.606
985.843
987.27
983.298
984.178
985.363
986.88
983.747
984.638
985.872
987.293
983.431
984.3
985.479
986.98
983.835
984.725
985.943
987.365
983.351
984.232
985.417
986.928
983.773
984.669
985.897
987.318
983.538
984.384
985.557
987.054
983.944
984.812
986.015
987.423
983.663
984.474
985.627
987.113
984.084
984.913
986.093
987.488
991.522
994.501
997.025
999.074
1000.65
991.713
994.655
997.171
999.217
1000.79
991.522
994.504
997.027
999.074
1000.65
991.71
994.653
997.166
999.211
1000.79
991.509
994.502
997.026
999.072
1000.65
991.615
994.562
997.075
999.118
1000.69
991.738
994.669
997.174
999.213
1000.79
991.769
994.684
997.179
999.213
1000.78
991.527
994.515
997.033
999.077
1000.65
991.693
994.741
997.265
999.307
1000.88
991.533
994.551
997.076
999.122
1000.7
991.713
994.775
997.302
999.346
1000.92
991.572
994.544
997.055
999.096
1000.67
991.752
994.79
997.308
999.347
1000.92
991.597
994.556
997.06
999.096
1000.67
991.802
994.83
997.34
999.375
1000.94
991.531
994.564
997.097
999.147
1000.72
991.736
994.819
997.356
999.405
1000.98
991.542
994.578
997.111
999.16
1000.74
991.743
994.826
997.363
999.412
1000.99
991.57
994.616
997.147
999.195
1000.77
991.767
994.852
997.387
999.434
1001.01
991.657
994.723
997.255
999.301
1000.88
991.831
994.913
997.445
999.49
1001.06
991.8
994.871
997.401
999.445
1001.02
998.817
999.384
998.894
999.473
999.07
999.665
999.353
999.937
999.811
1000.32
1000.98
1001.64
1000.46
1001.03
1001.43
1002.15
1001.83
1002.57
1006.1
1013.53
1019.52
1024.05
1027.05
1005.93
1013.44
1019.51
1024.07
1027.13
1006.17
1013.58
1019.56
1024.08
1027.08
1006.03
1013.51
1019.55
1024.12
1027.16
1006.32
1013.68
1019.63
1024.14
1027.13
1006.17
1013.61
1019.62
1024.17
1027.21
1006.54
1013.84
1019.74
1024.22
1027.2
1006.38
1013.75
1019.72
1024.25
1027.27
1006.87
1014.05
1019.9
1024.35
1027.31
1006.65
1013.93
1019.85
1024.36
1027.37
1007.64
1014.59
1020.31
1024.67
1027.59
1007.5
1014.51
1020.27
1024.69
1027.64
1007.25
1014.31
1020.09
1024.5
1027.44
1007.04
1014.18
1020.03
1024.5
1027.49
1008.01
1014.88
1020.53
1024.85
1027.75
1007.93
1014.84
1020.52
1024.88
1027.81
1008.37
1015.17
1020.76
1025.04
1027.91
1008.33
1015.16
1020.77
1025.09
1027.99
985.509
986.242
985.743
984.978
984.029
984.422
984.021
984.47
984.783
985.25
984.782
985.183
992.332
992.212
991.908
991.425
990.773
989.99
992.386
992.272
991.983
991.531
990.936
990.238
992.65
993.129
992.514
992.973
992.173
992.586
991.624
991.953
990.889
991.143
990.036
990.31
989.151
988.361
987.689
987.143
986.738
986.439
989.496
988.778
988.137
987.601
987.186
986.892
991.744
991.512
991.552
991.866
992.454
991.623
991.389
991.427
991.74
992.328
991.316
991.079
991.115
991.426
992.013
990.828
990.586
990.617
990.924
991.511
990.169
989.918
989.941
990.243
990.828
989.373
989.11
989.121
989.413
989.994
991.798
991.565
991.604
991.917
992.505
991.682
991.447
991.485
991.797
992.384
991.391
991.152
991.187
991.496
992.083
990.933
990.689
990.719
991.024
991.61
990.331
990.079
990.1
990.4
990.983
989.621
989.357
989.366
989.657
990.236
992.064
991.832
991.873
992.187
992.775
992.544
992.313
992.354
992.667
993.254
991.926
991.693
991.732
992.045
992.633
992.386
992.154
992.193
992.506
993.092
991.582
991.346
991.382
991.693
992.28
991.996
991.76
991.797
992.107
992.693
991.028
990.786
990.818
991.125
991.711
991.357
991.115
991.146
991.452
992.037
990.284
990.034
990.057
990.359
990.943
990.538
990.286
990.307
990.607
991.19
989.419
989.156
989.166
989.458
990.039
989.692
989.427
989.435
989.724
990.303
988.518
988.236
988.227
988.505
989.08
987.703
987.394
987.358
987.616
988.18
986.997
986.649
986.576
986.805
987.355
986.401
986.002
985.883
986.076
986.607
985.938
985.489
985.326
985.486
985.999
985.6
985.121
984.936
985.079
985.583
988.863
988.581
988.573
988.851
989.424
988.124
987.819
987.787
988.048
988.613
987.456
987.121
987.06
987.298
987.853
986.888
986.519
986.427
986.641
987.183
986.442
986.043
985.924
986.117
986.649
986.131
985.715
985.582
985.766
986.292
992.267
992.017
991.583
990.969
990.185
989.266
992.321
992.078
991.661
991.082
990.364
989.553
992.583
993.058
992.311
992.76
991.834
992.229
991.146
991.448
990.271
990.491
989.262
989.478
988.302
987.43
986.747
986.309
986.155
986.228
988.72
987.958
987.341
986.923
986.726
986.729
991.68
991.447
991.488
991.802
992.391
991.428
991.195
991.235
991.549
992.138
990.992
990.757
990.794
991.108
991.697
990.374
990.134
990.169
990.48
991.069
989.583
989.337
989.366
989.674
990.262
988.654
988.399
988.419
988.72
989.306
991.734
991.501
991.54
991.854
992.442
991.489
991.255
991.294
991.607
992.196
991.07
990.833
990.87
991.182
991.771
990.486
990.246
990.279
990.588
991.177
989.762
989.515
989.542
989.847
990.435
988.941
988.684
988.701
989
989.585
991.997
991.765
991.806
992.121
992.709
992.473
992.242
992.283
992.597
993.185
991.724
991.492
991.532
991.846
992.435
992.173
991.942
991.982
992.296
992.883
991.244
991.009
991.048
991.361
991.95
991.64
991.406
991.444
991.757
992.345
990.552
990.313
990.348
990.659
991.248
990.854
990.615
990.65
990.96
991.549
989.67
989.425
989.454
989.761
990.35
989.89
989.645
989.673
989.98
990.567
988.652
988.397
988.418
988.719
989.306
988.867
988.612
988.632
988.933
989.519
987.677
987.407
987.412
987.703
988.285
986.785
986.492
986.476
986.75
987.325
986.071
985.746
985.698
985.948
986.511
985.587
985.214
985.121
985.337
985.882
985.372
984.944
984.803
984.982
985.507
985.396
984.926
984.749
984.9
985.408
988.094
987.823
987.826
988.115
988.696
987.313
987.022
987.005
987.279
987.853
986.672
986.353
986.31
986.564
987.128
986.223
985.871
985.796
986.026
986.577
985.993
985.606
985.5
985.706
986.244
985.971
985.561
985.433
985.621
986.15
986.257
986.088
987.315
988.298
988.369
988.593
987.689
985.67
985.957
985.718
986.595
986.376
986.276
986.852
986.992
987.351
985.585
985.576
986.242
986.297
985.892
985.997
986.516
986.646
987.545
987.535
986.808
986.793
985.898
985.83
985.533
985.739
985.819
985.56
986.448
987.228
986.278
984.912
984.233
983.944
983.977
984.349
985.1
984.532
984.28
984.369
984.839
986.673
986.386
986.374
986.652
987.23
987.675
987.408
987.417
987.71
988.294
987.742
987.47
987.472
987.76
988.342
987.973
987.708
987.718
988.013
988.597
987.056
986.777
986.773
987.058
987.638
984.488
983.871
983.61
983.672
984.044
984.812
984.22
983.986
984.074
984.484
984.861
984.376
984.187
984.328
984.832
985.576
985.05
984.862
984.993
985.47
985.659
985.291
985.204
985.425
985.973
985.493
985.069
984.932
985.115
985.642
986.167
985.83
985.771
986.013
986.571
986.291
985.939
985.865
986.094
986.646
986.677
986.352
986.303
986.551
987.113
984.426
983.825
983.575
983.645
984.034
984.766
984.317
984.157
984.321
984.838
985.539
985.185
985.11
985.34
985.893
985.609
985.272
985.213
985.454
986.014
985.162
984.783
984.685
984.898
985.442
985.289
984.931
984.852
985.079
985.631
985.842
985.52
985.475
985.728
986.293
985.983
985.671
985.637
985.897
986.467
986.894
986.594
986.57
986.838
987.41
986.894
986.606
986.593
986.87
987.447
986.137
985.816
985.771
986.024
986.589
986.131
985.82
985.787
986.048
986.617
984.643
984.007
983.738
983.789
984.174
984.929
984.418
984.212
984.337
984.831
984.545
984.007
983.78
983.878
984.318
984.951
984.521
984.378
984.554
985.077
985.083
984.698
984.595
984.802
985.344
984.741
984.285
984.117
984.273
984.785
985.773
985.45
985.405
985.657
986.222
986.582
986.29
986.274
986.549
987.125
985.592
985.257
985.2
985.443
986.003
986.579
986.037
985.827
985.925
986.305
987.033
986.596
986.643
985.559
985.54
986.689
986.773
985.587
985.629
987.707
988.865
987.716
988.759
987.821
987.761
988.567
986.571
986.623
985.521
985.496
986.673
986.755
985.557
985.615
987.775
989.001
987.779
988.862
987.876
987.786
988.655
986.591
986.646
985.514
985.483
986.699
986.784
985.559
985.618
987.837
989.32
987.841
989.137
987.936
987.838
988.884
986.796
986.849
985.694
985.661
986.905
987.004
985.739
985.806
988.124
989.687
988.113
989.49
988.19
988.074
989.186
987.153
987.202
986.052
986.021
987.255
987.371
986.095
986.158
988.487
989.947
988.468
989.788
988.527
988.435
989.491
987.789
987.833
986.707
986.678
987.871
987.964
986.746
986.8
989.05
990.4
989.019
990.249
989.064
988.967
989.948
983.877
983.869
984.628
984.626
983.884
983.893
984.64
984.66
983.325
982.901
983.351
982.966
983.356
983.424
983.093
983.829
983.83
984.585
984.576
983.857
983.882
984.609
984.632
983.254
982.903
983.294
982.982
983.328
983.419
983.114
983.809
983.821
984.57
984.553
983.864
983.903
984.607
984.646
983.293
983.049
983.342
983.12
983.4
983.494
983.242
983.988
984.007
984.745
984.724
984.06
984.115
984.787
984.825
983.518
983.379
983.575
983.444
983.656
983.766
983.559
984.365
984.388
985.112
985.089
984.453
984.53
985.153
985.195
983.94
983.862
984.001
983.913
984.092
984.213
984.009
985.054
985.076
985.783
985.761
985.142
985.207
985.824
985.862
984.637
984.488
984.695
984.543
984.769
984.871
984.641
992.528
992.348
991.991
991.696
991.203
990.907
990.09
989.853
990.288
990.011
991.161
990.879
991.789
991.52
992.289
992.095
990.981
990.606
990.476
989.957
989.634
989.15
989.174
988.561
993.224
994.368
993.028
994.095
992.726
993.826
992.406
993.441
991.636
992.223
991.098
991.839
993.172
992.54
989.842
988.912
989.343
988.653
988.621
987.844
988.025
987.436
990.996
990.023
990.439
989.705
991.907
990.964
995.682
996.451
995.141
995.937
995.134
996.101
994.49
995.375
994.353
995.667
993.38
994.59
992.633
993.827
991.791
993.003
990.72
990.557
989.914
989.84
988.938
988.722
988.305
988.089
991.459
991.709
992.418
992.478
989.232
989.245
988.617
988.751
987.733
987.554
987.194
987.096
990.678
991.072
989.988
990.558
992.972
994.437
993.561
995.218
994.016
995.524
994.371
996.098
992.116
993.534
992.897
994.518
991.363
992.757
992.375
993.969
997.533
999.24
997.807
999.506
997.015
998.595
997.528
999.145
996.167
997.374
997.071
998.399
991.874
989.759
993.789
995.234
996.789
990.04
992.273
994.551
996.098
997.789
989.522
991.514
993.444
995.27
997.05
1000.82
1001.56
1001.7
1002.36
999.996
1000.86
1001.15
1001.87
998.614
999.578
1000.23
1001.09
990.502
991.261
992.945
993.994
995.193
996.289
996.993
998.084
999.383
1000.49
989.862
990.474
992.093
993.195
994.189
995.453
996.276
997.649
998.906
1000.36
991.104
992.35
990.21
991.313
988.916
989.244
988.122
988.288
992.426
993.911
993.302
994.878
989.448
990.558
988.962
990.02
987.482
987.636
987.024
987.129
991.627
993.143
991.134
992.616
994.95
996.764
998.075
1000.29
995.652
997.554
998.538
1000.71
994.299
996.058
997.629
999.811
993.684
995.46
996.98
999.046
1001.74
1002.02
1002.61
1001.91
1001.98
1002.52
1001.21
1001.57
1002.2
1001.51
1001.62
1002.2
1000.16
1000.66
1001.37
1000.93
1001.13
1001.78
992.194
993.267
994.417
995.104
996.034
997.044
997.315
998.105
998.987
998.911
999.562
1000.4
1000.47
1000.76
1001.53
991.333
992.532
993.83
994.653
995.906
997.191
996.93
998.024
999.168
998.771
999.568
1000.57
1000.46
1000.85
1001.73
987.235
986.848
986.896
986.399
988.318
987.837
987.926
987.333
986.977
986.139
986.89
986.108
986.744
985.994
986.579
985.874
986.04
986.364
985.842
986.22
985.862
985.596
986.015
985.568
986.862
986.358
985.824
985.406
985.532
985.128
985.443
985.032
985.294
984.545
985.44
984.729
985.193
984.42
985.23
984.51
985.114
984.266
984.938
984.156
984.807
984.11
984.455
983.87
986.317
985.972
985.882
985.491
987.456
987.153
986.939
986.609
985.138
984.674
985.516
985.095
985.453
985.074
985.024
984.705
986.447
986.139
985.971
985.725
984.763
984.307
984.374
983.981
984.511
983.827
984.129
983.708
984.814
984.089
984.496
984.016
984.207
983.595
983.807
983.442
983.87
983.347
983.523
983.212
985.292
985.623
984.609
984.962
985.288
985.641
984.561
984.93
985.291
985.61
984.489
984.821
986.623
987.966
985.776
985.113
984.398
988.221
986.89
986.092
985.441
984.691
987.725
986.42
985.483
984.849
984.32
986.215
987.041
985.564
986.368
986.177
986.962
985.473
986.244
986.075
986.815
985.296
986.015
988.552
989.176
987.144
987.779
986.332
986.988
985.716
986.387
985.013
985.692
987.925
988.28
986.588
986.947
985.679
986.117
985.091
985.633
984.63
985.314
985.876
985.98
985.383
985.342
987.095
987.157
986.498
986.374
984.66
984.803
985.083
985.345
985.005
984.851
984.638
984.446
986.034
985.801
985.62
985.341
984.322
984.365
983.995
984.004
984.205
984.54
983.975
984.522
984.593
985.03
984.278
984.903
983.889
984.134
983.714
984.189
983.623
983.832
983.482
983.894
988.168
989.287
990.339
987.757
989.022
990.078
988.017
989.148
990.225
987.577
988.85
989.951
987.805
988.915
990.008
987.287
988.62
989.795
990.026
991.095
992.255
988.651
989.762
990.949
987.878
989.04
990.247
987.333
988.492
989.659
986.97
988.372
989.653
988.949
990.103
991.416
987.653
988.833
990.152
986.932
988.185
989.544
986.599
987.922
989.294
986.653
988.122
989.531
984.204
984.643
985.883
988.205
984.417
984.891
986.174
988.516
984.11
984.569
985.812
988.155
984.244
984.752
986.047
988.396
983.992
984.479
985.669
987.942
983.943
984.493
985.766
988.088
983.983
984.598
985.963
988.344
983.853
984.545
985.966
988.363
983.716
984.303
985.546
987.846
983.757
984.388
985.523
987.591
983.913
984.436
985.557
987.69
983.977
984.541
985.594
987.541
983.558
984.208
985.549
987.935
983.566
984.255
985.458
987.575
983.395
984.108
985.497
987.87
983.399
984.14
985.379
987.487
984.236
984.624
985.749
987.934
984.526
984.848
985.805
987.712
984.21
984.612
985.721
987.89
984.514
984.853
985.804
987.692
984.175
984.603
985.676
987.781
984.455
984.832
985.785
987.649
984.167
984.63
985.648
987.629
984.398
984.817
985.758
987.571
984.196
984.699
985.67
987.483
984.975
985.239
986.097
987.455
985.483
985.709
986.586
987.857
984.922
985.211
986.076
987.429
985.427
985.683
986.573
987.848
984.822
985.158
986.044
987.407
985.327
985.635
986.547
987.825
984.675
985.077
985.983
987.352
985.189
985.564
986.505
987.794
984.485
984.971
985.91
987.294
985.027
985.483
986.46
987.762
984.12
984.765
985.811
987.248
984.609
985.243
986.309
987.66
984.3
984.869
985.863
987.275
984.818
985.364
986.385
987.71
983.958
984.669
985.763
987.226
984.416
985.129
986.24
987.606
983.803
984.569
985.696
987.171
984.24
985.019
986.168
987.549
991.766
994.65
997.119
999.137
1000.7
991.949
994.803
997.264
999.281
1000.84
991.743
994.639
997.111
999.131
1000.7
991.911
994.776
997.243
999.262
1000.83
991.703
994.621
997.1
999.122
1000.69
991.782
994.665
997.139
999.161
1000.73
991.855
994.741
997.219
999.243
1000.81
991.813
994.711
997.195
999.224
1000.79
991.678
994.607
997.091
999.116
1000.68
991.827
994.822
997.315
999.341
1000.91
991.711
994.659
997.144
999.167
1000.73
991.873
994.871
997.362
999.386
1000.95
991.676
994.607
997.095
999.122
1000.69
991.844
994.845
997.342
999.37
1000.94
991.633
994.578
997.074
999.105
1000.67
991.834
994.849
997.352
999.383
1000.95
991.784
994.716
997.191
999.21
1000.77
991.996
994.972
997.451
999.468
1001.03
991.78
994.723
997.201
999.221
1000.78
991.993
994.976
997.457
999.475
1001.04
991.784
994.745
997.228
999.249
1000.81
991.996
994.988
997.472
999.491
1001.05
991.848
994.838
997.327
999.349
1000.91
992.032
995.033
997.52
999.541
1001.1
991.976
994.977
997.467
999.489
1001.05
1005.39
1005.88
1005.16
1005.67
1004.77
1005.33
1004.27
1004.92
1003.78
1004.54
1003.02
1003.9
1003.41
1004.27
1002.63
1003.48
1002.23
1003
1010.91
1016.99
1022.12
1026.13
1028.89
1010.81
1016.93
1022.13
1026.17
1028.96
1010.81
1016.93
1022.09
1026.11
1028.86
1010.72
1016.9
1022.1
1026.16
1028.95
1010.61
1016.82
1022.01
1026.05
1028.82
1010.54
1016.79
1022.03
1026.11
1028.91
1010.35
1016.67
1021.91
1025.97
1028.75
1010.3
1016.65
1021.93
1026.03
1028.84
1010.05
1016.47
1021.77
1025.87
1028.65
1010.04
1016.48
1021.81
1025.94
1028.76
1009.39
1015.98