/*--------------------------------*- C++ -*----------------------------------*\
  =========                 |
  \\      /  F ield         | OpenFOAM: The Open Source CFD Toolbox
   \\    /   O peration     | Website:  https://openfoam.org
    \\  /    A nd           | Version:  13
     \\/     M anipulation  |
\*---------------------------------------------------------------------------*/
FoamFile
{
    format      ascii;
    class       volScalarField;
    location    "389.831886";
    object      T;
}
// * * * * * * * * * * * * * * * * * * * * * * * * * * * * * * * * * * * * * //

dimensions      [0 0 0 1 0 0 0];

internalField   nonuniform List<scalar> 
5712
(
1153.72
1154.6
1156.09
1157.15
1157.5
1158.61
1157.53
1158.52
1154.44
1156.08
1154.18
1155.71
1153.19
1154.52
1151.68
1152.77
1160.34
1163.17
1162.43
1166.06
1160.96
1164.35
1163.24
1167.44
1154.69
1155.05
1155.36
1155.17
1157.1
1157.24
1157.94
1157.43
1162.07
1160.15
1164.73
1162.19
1159.8
1160.96
1162.67
1164.63
1167.16
1168.21
1163.88
1165.87
1168.73
1169.82
1161.97
1163.43
1165.39
1166.16
1160.34
1161.49
1155.53
1152.85
1153.94
1150.47
1157.59
1154.55
1156.02
1152.32
1160.57
1157.16
1160.92
1156.53
1160.34
1155.52
1160.8
1155.73
1165.83
1167.73
1168.19
1169.54
1167.25
1169.18
1169.64
1171.14
1166.58
1167.67
1164.59
1166.26
1169.53
1170.59
1170.52
1171.23
1171.01
1172.23
1172
1172.91
1167.7
1168.56
1168.61
1169.11
1164.45
1159.56
1165.03
1160.42
1163.35
1159.1
1164.08
1159.81
1165.1
1159.9
1165.68
1160.88
1165.79
1160.4
1166.13
1161.24
1153.69
1153.28
1152.98
1153.38
1155.6
1154.82
1154.49
1154.71
1158.27
1157.31
1156.66
1156.73
1162.62
1163.83
1161.91
1161.99
1158.71
1162.44
1160.96
1159.75
1160.67
1158.5
1165.91
1164.88
1164.21
1162.92
1159.31
1153.57
1153.13
1155.47
1155.95
1154.56
1153.81
1156.24
1156.6
1156.39
1155.22
1157.45
1157.43
1161.42
1159.4
1159.93
1157.44
1159.47
1157.37
1160.25
1158.8
1158.56
1157.74
1165.67
1165.14
1164.24
1162.52
1163.38
1161.31
1162.04
1159.87
1158.74
1156.66
1166.95
1162.75
1168.55
1164.24
1169.24
1168.07
1171.09
1169.75
1166.07
1160.92
1164.89
1160.01
1169.56
1165.17
1170.04
1165.51
1172.08
1170.51
1172.57
1170.84
1166.96
1161.62
1167.38
1161.91
1163.08
1157.92
1158.77
1154.08
1162.41
1157.43
1158.5
1154.13
1163.66
1158.47
1159.06
1154.31
1164.21
1158.72
1159.63
1154.88
1151.48
1148.65
1143.07
1153.83
1150.97
1145.46
1152.12
1149.37
1143.85
1154.54
1151.76
1146.16
1153.59
1151.21
1145.81
1155.25
1152.37
1146.52
1157.64
1155.44
1149.76
1155.11
1152.98
1147.54
1155.2
1152.76
1147.18
1156.97
1154.47
1148.8
1154.82
1151.58
1145.27
1163.38
1160.21
1153.44
1158.91
1155.5
1148.8
1157.41
1154.05
1147.54
1155.97
1152.57
1146.1
1151.39
1147.72
1141.06
1163.01
1165.96
1164.98
1168.68
1161.86
1165.31
1164.09
1168.32
1159.45
1162.31
1160.06
1162.31
1161.66
1163.94
1162.43
1164.09
1166.45
1164.67
1168.83
1166.54
1165.88
1166.91
1169.63
1170.52
1169.57
1170.61
1166.06
1167.09
1169.25
1169.79
1165.94
1166.69
1166.53
1169.85
1164.55
1166.9
1167.56
1170.66
1165.89
1168.03
1168.99
1171.84
1169.02
1170.75
1167.91
1168.83
1167.97
1168.36
1169.36
1171.77
1171.38
1173.37
1168.44
1170.55
1170.71
1172.43
1171.81
1174.02
1170.24
1172.83
1172.52
1174.28
1173.37
1174.86
1172.01
1173.47
1172.95
1174.13
1172.66
1174.72
1173.36
1175.2
1172.37
1173.23
1174.28
1174.02
1171.66
1173.07
1173.48
1173.52
1172.69
1173.12
1174.78
1174.34
1173.12
1173.18
1175.13
1174.55
1165.97
1165.15
1170.7
1170.15
1166.6
1165.6
1171.12
1170.44
1167.69
1166.75
1171.74
1171.08
1167.02
1165.38
1168.45
1170.7
1172.59
1164.05
1165.52
1166.58
1169.38
1171.87
1167.5
1169.34
1171.14
1172.41
1172.88
1163.75
1161.68
1168.5
1165.98
1164.31
1162.37
1169.03
1166.72
1165.56
1163.81
1169.93
1167.95
1163.25
1161.56
1165.07
1163.46
1166.73
1165.19
1169.2
1167.73
1171.22
1169.39
1167.52
1167.57
1169.47
1169.46
1171.2
1170.92
1172.23
1171.34
1172.21
1170.23
1172.53
1172.63
1173.97
1173.99
1171.12
1171.16
1172.88
1172.8
1174.46
1174.15
1173.4
1173.09
1174.68
1174.58
1175.1
1174.84
1173.73
1173.49
1174.21
1173.82
1175.04
1174.64
1175.38
1174.84
1174.35
1173.29
1173.08
1170.78
1173.61
1172.48
1172.73
1170.38
1174.77
1173.7
1173.27
1170.95
1175.02
1173.86
1173.49
1171.27
1158.59
1155.11
1149.22
1161.36
1157.51
1151.65
1159.51
1156.12
1150.29
1162.44
1158.72
1152.75
1161.51
1158.59
1152.9
1164.07
1160.32
1154.07
1160.11
1157.89
1152.16
1162.03
1159.67
1153.94
1163.56
1160.79
1154.87
1165.84
1163.02
1157.15
1165.48
1161.59
1154.97
1166.47
1163.5
1156.76
1168.38
1165.41
1158.74
1169.5
1166.33
1159.54
1169.22
1165.85
1159.09
1165.92
1162.11
1155.09
1170.89
1170.35
1168.47
1164.43
1167.79
1167.26
1165.48
1161.78
1171.44
1170.8
1168.83
1164.59
1168.71
1168.08
1166.15
1162.19
1172.17
1171.35
1169.44
1165.24
1170.95
1170.17
1168.17
1163.98
1168.65
1167.8
1165.93
1162.2
1167.89
1166.92
1165.23
1161.97
1172.72
1171.65
1169.66
1165.4
1172.3
1170.79
1169.07
1164.99
1172.53
1171.44
1169.66
1165.66
1171.82
1170.34
1168.78
1164.89
1172.55
1171.46
1169.36
1165.02
1172.61
1171.07
1169.2
1164.89
1172.44
1171.31
1169.27
1165.16
1172.8
1171.23
1169.31
1164.96
1171.86
1171.26
1169.44
1165.22
1170.91
1170.12
1168.61
1164.49
1171.97
1171.26
1169.44
1165.22
1170.84
1169.95
1168.48
1164.44
1172
1171.1
1169.37
1165.24
1170.84
1169.79
1168.34
1164.34
1171.79
1170.61
1169.02
1165.05
1170.77
1169.52
1168.13
1164.22
1171.16
1169.7
1168.3
1164.54
1168.25
1167.19
1165.97
1161.77
1164.06
1162.76
1161.06
1156.22
1168.41
1167.27
1166.02
1161.85
1164.21
1162.8
1161.07
1156.22
1168.64
1167.34
1166.06
1161.86
1164.39
1162.82
1161.05
1156.25
1168.97
1167.46
1166.14
1161.96
1164.65
1162.87
1161.06
1156.25
1169.32
1167.6
1166.21
1162.05
1164.87
1162.86
1161.01
1156.17
1169.62
1167.64
1166.16
1161.93
1165.52
1163.23
1161.25
1156.29
1169.49
1167.62
1166.18
1161.98
1165.24
1163.06
1161.15
1156.28
1169.67
1167.62
1166.15
1161.9
1165.62
1163.25
1161.27
1156.37
1169.75
1167.66
1166.17
1161.93
1165.7
1163.27
1161.28
1156.39
1158.7
1155.31
1152.6
1149.29
1143.16
1156.71
1153.48
1150.8
1147.5
1141.38
1158.75
1155.33
1152.62
1149.31
1143.18
1156.85
1153.59
1150.9
1147.6
1141.47
1158.95
1155.45
1152.72
1149.4
1143.27
1158.12
1154.8
1152.1
1148.8
1142.66
1156.98
1153.7
1151
1147.7
1141.57
1157.09
1153.81
1151.11
1147.81
1141.68
1158.96
1155.44
1152.71
1149.39
1143.25
1156.78
1152.93
1150.15
1146.84
1140.72
1158.61
1154.97
1152.21
1148.9
1142.77
1156.35
1152.45
1149.68
1146.36
1140.25
1158.76
1155.26
1152.53
1149.21
1143.08
1156.34
1152.49
1149.71
1146.4
1140.28
1158.87
1155.36
1152.63
1149.31
1143.18
1156.12
1152.25
1149.47
1146.16
1140.04
1158.25
1154.6
1151.86
1148.55
1142.42
1155.52
1151.63
1148.86
1145.56
1139.44
1158.15
1154.48
1151.73
1148.42
1142.29
1155.47
1151.57
1148.8
1145.49
1139.37
1157.87
1154.13
1151.37
1148.05
1141.92
1155.25
1151.32
1148.54
1145.24
1139.12
1156.84
1152.96
1150.18
1146.87
1140.74
1154.61
1150.65
1147.87
1144.56
1138.44
1155.16
1151.24
1148.46
1145.15
1139.04
1151.43
1151.14
1151.62
1151.32
1151.95
1151.5
1152.2
1151.54
1152.13
1151.33
1152.04
1150.66
1151.91
1150.7
1152.23
1150.83
1152.44
1151.1
1146.68
1142.8
1139.55
1135.84
1128.96
1146.07
1141.93
1138.48
1134.64
1127.68
1146.72
1142.82
1139.55
1135.85
1128.96
1146.12
1141.96
1138.51
1134.64
1127.66
1146.83
1142.88
1139.6
1135.89
1129
1146.21
1142.01
1138.54
1134.67
1127.69
1146.91
1142.93
1139.64
1135.91
1129.02
1146.28
1142.07
1138.58
1134.69
1127.7
1146.88
1142.91
1139.6
1135.86
1128.98
1146.28
1142.09
1138.59
1134.69
1127.7
1147.08
1143.12
1139.77
1136
1129.14
1146.3
1142.19
1138.67
1134.76
1127.79
1146.92
1142.97
1139.64
1135.89
1129.02
1146.24
1142.12
1138.62
1134.72
1127.73
1147.25
1143.26
1139.88
1136.1
1129.23
1146.45
1142.33
1138.79
1134.86
1127.91
1147.39
1143.37
1139.96
1136.16
1129.29
1146.62
1142.44
1138.87
1134.92
1127.96
1166.69
1166.56
1164.66
1165
1157.14
1157.98
1159.28
1160.24
1159.86
1160.92
1158.39
1159.4
1155.08
1156.72
1155.92
1157.42
1155.6
1156.86
1154.45
1155.49
1168.38
1166.95
1162.6
1160.42
1155.22
1157.58
1160.6
1166.37
1164.35
1165.13
1161.64
1155.24
1162.41
1162.77
1156.78
1159.77
1158.24
1155.03
1167.43
1166.03
1163.38
1163.84
1165.02
1165.2
1164.31
1163.44
1155.84
1158.92
1160.79
1162.08
1168.23
1166.71
1167.41
1166.22
1165.91
1166.54
1164.21
1161.58
1164.33
1173
1174.16
1173.84
1171.94
1167.23
1171.58
1173.06
1172.91
1170.96
1166.01
1167.39
1168.95
1168.73
1166.61
1161.49
1165.2
1166.74
1166.52
1164.39
1159.27
1159.98
1161.53
1161.31
1159.2
1154.1
1162.34
1163.89
1163.66
1161.54
1156.43
1165.39
1166.94
1166.72
1164.6
1159.49
1171.04
1172.5
1172.52
1170.87
1166.36
1169.13
1170.77
1170.91
1169.29
1164.66
1169.89
1171.55
1171.56
1169.69
1164.74
1166.52
1168.18
1168.25
1166.52
1161.78
1160.01
1161.74
1161.83
1160.12
1155.4
1167.23
1168.85
1168.73
1166.69
1161.63
1167.58
1169.25
1169.21
1167.27
1162.26
1161.59
1163.25
1163.2
1161.25
1156.25
1164.58
1166.18
1166.02
1163.96
1158.88
1163.05
1164.67
1164.55
1162.52
1157.46
1159.82
1161.41
1161.25
1159.19
1154.12
1172.13
1173.45
1173.3
1171.51
1166.87
1170.8
1172.41
1172.32
1170.36
1165.35
1168.2
1169.8
1169.64
1167.58
1162.5
1168.65
1170.24
1170.06
1167.98
1162.88
1169.82
1171.42
1171.28
1169.23
1164.15
1170
1171.59
1171.42
1169.34
1164.24
1169.11
1170.68
1170.48
1168.37
1163.26
1168.24
1169.81
1169.62
1167.51
1162.39
1160.61
1162.18
1161.98
1159.89
1154.8
1163.7
1165.26
1165.06
1162.95
1157.84
1165.59
1167.17
1166.99
1164.91
1159.81
1166.88
1168.46
1168.26
1166.16
1161.05
1172.87
1174.09
1173.83
1171.96
1167.27
1171.39
1172.92
1172.77
1170.8
1165.8
1172.19
1173.6
1173.44
1171.52
1166.6
1170.99
1172.56
1172.4
1170.36
1165.3
1170.7
1172.28
1172.12
1170.05
1164.96
1171.29
1172.87
1172.77
1170.8
1165.79
1169.01
1170.59
1170.39
1168.29
1163.18
1166.37
1167.94
1167.73
1165.61
1160.5
1169.13
1170.71
1170.53
1168.44
1163.33
1171.35
1167.59
1171.78
1167.98
1172.7
1168.79
1172.27
1168.5
1172.44
1172.98
1169.79
1171.81
1173.48
1174.1
1170.91
1173.1
1170.01
1168.07
1166.32
1164.37
1170.5
1168.86
1166.74
1165.03
1168.67
1171.12
1170.45
1171.76
1169.79
1167.11
1166.81
1165.95
1170.34
1169.21
1168.05
1167.2
1171.78
1170.79
1165.84
1164.72
1168.65
1167.24
1164.08
1162.77
1165.17
1160.68
1161.42
1156.94
1166.32
1161.51
1162.3
1157.73
1168.24
1162.94
1166.04
1160.73
1163.45
1158.13
1161.85
1156.62
1172.79
1172.41
1172.36
1172.24
1174.14
1174.06
1173.73
1173.9
1170.64
1170.13
1171.19
1170.33
1171.75
1172.01
1171.19
1171.67
1173.16
1173.67
1172.64
1173.35
1169.92
1169.88
1169.29
1169.52
1168.05
1162.58
1167.18
1162.32
1168.74
1163.35
1167.45
1162.69
1167.16
1161.7
1166.88
1161.98
1166.45
1160.99
1166.52
1161.59
1167.11
1167.88
1162.67
1163.67
1168.02
1168.52
1163.2
1164
1169.12
1169.39
1163.86
1164.42
1172.86
1174.23
1171.35
1169.11
1163.97
1174.2
1172.93
1171.47
1169.39
1164.45
1174.1
1172.49
1170.47
1167.72
1163.16
1167.85
1166.45
1163.89
1162.25
1168.39
1167.01
1164.09
1162.52
1169.13
1167.83
1164.27
1162.71
1173.91
1172.72
1172.49
1171.09
1170.95
1169.61
1168.77
1167.49
1163.73
1161.96
1173.78
1172.4
1171.8
1169.55
1169.59
1167.05
1166.79
1164.25
1162.28
1159.8
1171.08
1166.7
1170.82
1166.42
1173.59
1171.85
1173.4
1171.75
1168.16
1162.98
1168.48
1163.5
1170.71
1166.27
1170.39
1165.84
1173.21
1171.52
1172.92
1171.14
1168.06
1162.69
1167.72
1162.23
1164.89
1159.71
1160.3
1155.59
1165.36
1160.29
1160.88
1156.42
1164.66
1159.45
1159.92
1155.16
1164.54
1159.03
1159.9
1155.14
1163.26
1158.93
1158.47
1154.11
1164.17
1159.7
1158.88
1154.45
1165.17
1160.25
1159.16
1154.17
1170.22
1164.91
1168.28
1162.98
1166.93
1161.75
1164.75
1159.26
1158.26
1152.55
1169.65
1163.78
1165.47
1159.42
1162.69
1156.76
1159.73
1153.75
1154.13
1147.91
1174.51
1175.21
1171.88
1174.04
1174.15
1174.87
1171.58
1173.84
1173.47
1173.49
1169.83
1169.9
1173.95
1173.98
1170.28
1170.37
1172.3
1174.67
1173.91
1175.23
1174.56
1172.07
1172.57
1171.45
1172.54
1171.55
1169.46
1168.22
1172.12
1170.74
1169.04
1167.75
1173.38
1173.08
1169.81
1169.64
1173.94
1173.63
1170.35
1170.36
1174.83
1174.44
1172.88
1172.68
1170.25
1170.06
1168.76
1168.78
1175.61
1175.81
1175.12
1175.69
1175.1
1175.2
1174.66
1175.06
1175.17
1175.9
1175.71
1175.98
1174.5
1175.49
1173.97
1175.24
1174.08
1174.83
1173.57
1174.55
1174.47
1175.73
1173.92
1175.51
1174.98
1174.6
1175.7
1174.9
1175.57
1174.98
1175.74
1174.82
1174.17
1173.95
1175.56
1174.85
1173.59
1173.45
1175.38
1174.72
1174.97
1175.07
1174.53
1174.33
1175.22
1175.18
1174.7
1174.36
1175.49
1175.43
1174.86
1174.48
1175.77
1175.22
1175.9
1175.76
1174.93
1175.16
1175.69
1175.79
1175.61
1174.56
1175.23
1175.8
1175.94
1175.65
1174.6
1173.96
1171.44
1172.74
1169.68
1174.28
1172.02
1172.99
1170.16
1174.78
1172.93
1173.39
1170.95
1174.95
1173.89
1175.53
1174.45
1175.54
1174.31
1175.17
1173.65
1173.74
1171.59
1175.09
1174.17
1175.69
1174.79
1175.76
1174.68
1175.29
1173.77
1173.86
1171.64
1175.87
1175.29
1175.81
1175.47
1175.18
1174.53
1175.03
1174.59
1175.94
1175.35
1175.94
1175.08
1175.62
1175.35
1175.39
1175.08
1174.8
1174.4
1174.54
1174.09
1175.82
1175.29
1175.62
1175.04
1175.45
1174.23
1173.83
1171.51
1175.41
1173.89
1173.86
1171.4
1175.38
1174.24
1173.71
1171.38
1175.22
1174.04
1173.63
1171.4
1167.57
1162.98
1164.34
1159.09
1168.58
1163.84
1165.08
1159.77
1169.89
1164.84
1166.24
1160.41
1171.54
1166.28
1172.05
1166.84
1171.85
1166.67
1170.86
1165.4
1167.12
1160.76
1171.97
1166.18
1172.6
1166.81
1172.25
1166.34
1170.74
1164.64
1166.83
1160.16
1172.22
1171
1168.85
1164.66
1168.99
1167.85
1165.82
1162
1172.67
1171.4
1169.18
1164.81
1169.75
1168.6
1166.46
1162.38
1173.24
1171.9
1169.76
1165.44
1171.79
1170.61
1168.43
1164.14
1169.21
1168.09
1166.1
1162.32
1168.09
1167.03
1165.29
1162.01
1173.38
1172.01
1169.89
1165.55
1172.8
1171.08
1169.27
1165.13
1173.42
1171.92
1169.96
1165.84
1172.53
1170.75
1169.04
1165.07
1172.96
1171.69
1169.5
1165.12
1172.9
1171.25
1169.32
1164.98
1172.58
1171.39
1169.32
1165.2
1172.9
1171.29
1169.35
1164.99
1173.36
1171.98
1169.85
1165.48
1172.53
1170.9
1169.06
1164.78
1173.38
1171.94
1169.84
1165.47
1172.38
1170.7
1168.92
1164.71
1173.26
1171.73
1169.74
1165.47
1172.21
1170.47
1168.75
1164.6
1172.85
1171.17
1169.36
1165.26
1171.95
1170.14
1168.5
1164.45
1172.05
1170.2
1168.61
1164.74
1169.92
1168
1166.44
1162.11
1165.73
1163.58
1161.54
1156.58
1169.99
1168.04
1166.48
1162.17
1165.77
1163.59
1161.53
1156.56
1170.04
1168.05
1166.48
1162.16
1165.78
1163.54
1161.49
1156.57
1170.13
1168.09
1166.52
1162.23
1165.82
1163.51
1161.46
1156.55
1170.22
1168.12
1166.53
1162.29
1165.8
1163.41
1161.36
1156.44
1170.09
1167.93
1166.36
1162.08
1166.03
1163.54
1161.46
1156.46
1170.17
1168.02
1166.45
1162.18
1165.95
1163.5
1161.44
1156.5
1169.95
1167.8
1166.27
1162
1165.93
1163.44
1161.4
1156.48
1169.84
1167.72
1166.21
1161.97
1165.79
1163.34
1161.32
1156.42
1158.83
1155.39
1152.65
1149.33
1143.19
1156.84
1153.56
1150.85
1147.53
1141.4
1158.87
1155.41
1152.67
1149.34
1143.2
1156.96
1153.66
1150.94
1147.63
1141.5
1159.06
1155.51
1152.76
1149.43
1143.29
1158.21
1154.86
1152.14
1148.82
1142.68
1157.05
1153.74
1151.03
1147.71
1141.58
1157.11
1153.82
1151.12
1147.81
1141.69
1159.05
1155.49
1152.74
1149.41
1143.27
1156.86
1152.97
1150.18
1146.86
1140.73
1158.71
1155.03
1152.25
1148.93
1142.79
1156.44
1152.51
1149.71
1146.39
1140.27
1158.81
1155.29
1152.55
1149.23
1143.09
1156.39
1152.52
1149.73
1146.41
1140.28
1158.89
1155.38
1152.63
1149.32
1143.18
1156.14
1152.26
1149.48
1146.16
1140.04
1158.39
1154.69
1151.91
1148.58
1142.45
1155.67
1151.72
1148.92
1145.59
1139.47
1158.29
1154.56
1151.78
1148.45
1142.32
1155.61
1151.65
1148.85
1145.52
1139.4
1157.99
1154.2
1151.41
1148.08
1141.95
1155.38
1151.4
1148.59
1145.27
1139.14
1156.94
1153.02
1150.22
1146.89
1140.76
1154.72
1150.71
1147.91
1144.59
1138.46
1155.26
1151.3
1148.49
1145.17
1139.06
1156.07
1155.3
1155.97
1155.21
1155.74
1154.92
1155.3
1154.44
1154.51
1153.71
1153.2
1151.92
1153.64
1152.54
1152.9
1151.55
1152.66
1151.33
1149.28
1144.44
1140.69
1136.71
1129.7
1148.69
1143.59
1139.63
1135.52
1128.42
1149.21
1144.4
1140.66
1136.69
1129.68
1148.62
1143.57
1139.63
1135.49
1128.38
1149.1
1144.36
1140.65
1136.68
1129.68
1148.5
1143.51
1139.6
1135.47
1128.37
1148.89
1144.26
1140.58
1136.64
1129.64
1148.31
1143.43
1139.55
1135.43
1128.33
1148.5
1144.03
1140.41
1136.49
1129.52
1148.01
1143.28
1139.44
1135.35
1128.27
1147.95
1143.76
1140.24
1136.38
1129.45
1147.27
1142.9
1139.2
1135.17
1128.14
1148.17
1143.86
1140.29
1136.4
1129.46
1147.62
1143.1
1139.33
1135.27
1128.2
1147.77
1143.64
1140.17
1136.33
1129.43
1147.03
1142.76
1139.11
1135.11
1128.12
1147.57
1143.49
1140.06
1136.24
1129.36
1146.81
1142.58
1138.98
1135.01
1128.04
1167.93
1167.86
1168.73
1168.87
1173.28
1169.56
1173.77
1169.99
1173.34
1169.43
1172.89
1169.13
1155.72
1155.86
1156.18
1156.75
1157.65
1158.93
1153.46
1153.6
1153.91
1154.42
1155.15
1156.08
1153.93
1149.59
1154.08
1149.76
1154.45
1150.19
1155.15
1151.1
1156.37
1152.51
1158.17
1154.28
1160.47
1161.89
1163.01
1163.84
1164.47
1164.88
1157.14
1158.16
1159.03
1159.72
1160.22
1160.53
1160.46
1161.99
1161.75
1159.62
1154.51
1160.6
1162.13
1161.89
1159.76
1154.65
1160.93
1162.46
1162.22
1160.09
1154.98
1161.5
1163.03
1162.8
1160.66
1155.55
1162.41
1163.94
1163.71
1161.58
1156.46
1163.69
1165.23
1165
1162.87
1157.75
1158.2
1159.72
1159.48
1157.35
1152.25
1158.34
1159.86
1159.62
1157.49
1152.39
1158.65
1160.17
1159.94
1157.81
1152.71
1159.16
1160.69
1160.45
1158.32
1153.22
1159.9
1161.43
1161.19
1159.07
1153.96
1160.84
1162.37
1162.14
1160.02
1154.91
1158.66
1160.19
1159.95
1157.82
1152.72
1154.32
1155.84
1155.6
1153.47
1148.39
1158.82
1160.34
1160.1
1157.97
1152.87
1154.49
1156.01
1155.77
1153.64
1148.56
1159.19
1160.71
1160.47
1158.34
1153.24
1154.92
1156.44
1156.2
1154.08
1148.99
1159.9
1161.43
1161.19
1159.06
1153.96
1155.83
1157.36
1157.12
1155
1149.91
1161.12
1162.66
1162.42
1160.29
1155.18
1157.25
1158.78
1158.54
1156.42
1151.33
1162.93
1164.47
1164.24
1162.11
1157
1159.03
1160.56
1160.33
1158.21
1153.11
1165.24
1166.79
1166.56
1164.44
1159.32
1166.68
1168.23
1168.02
1165.9
1160.78
1167.81
1169.37
1169.17
1167.06
1161.95
1168.63
1170.19
1170.01
1167.92
1162.82
1169.24
1170.79
1170.62
1168.56
1163.48
1169.62
1171.16
1170.99
1168.94
1163.89
1161.9
1163.45
1163.22
1161.1
1155.99
1162.93
1164.48
1164.26
1162.15
1157.04
1163.81
1165.37
1165.16
1163.05
1157.95
1164.5
1166.06
1165.86
1163.76
1158.67
1164.99
1166.55
1166.36
1164.28
1159.19
1165.29
1166.85
1166.66
1164.58
1159.5
1155.74
1155.93
1156.3
1156.91
1157.84
1159.14
1153.49
1153.67
1154.03
1154.58
1155.35
1156.32
1153.95
1149.62
1154.15
1149.84
1154.57
1150.32
1155.31
1151.24
1156.52
1152.6
1158.31
1154.39
1160.73
1162.21
1163.38
1164.21
1164.75
1164.98
1157.42
1158.48
1159.36
1160.02
1160.43
1160.6
1160.49
1162.02
1161.78
1159.64
1154.53
1160.68
1162.2
1161.96
1159.83
1154.72
1161.05
1162.58
1162.34
1160.2
1155.09
1161.66
1163.19
1162.95
1160.82
1155.71
1162.59
1164.12
1163.89
1161.75
1156.64
1163.9
1165.44
1165.2
1163.07
1157.95
1158.22
1159.75
1159.51
1157.38
1152.28
1158.41
1159.93
1159.69
1157.56
1152.46
1158.77
1160.29
1160.05
1157.92
1152.82
1159.32
1160.85
1160.61
1158.48
1153.38
1160.1
1161.63
1161.39
1159.26
1154.15
1161.08
1162.61
1162.37
1160.25
1155.14
1158.69
1160.21
1159.97
1157.84
1152.74
1154.35
1155.86
1155.62
1153.5
1148.42
1158.89
1160.42
1160.18
1158.05
1152.94
1154.57
1156.09
1155.85
1153.72
1148.64
1159.31
1160.84
1160.6
1158.46
1153.36
1155.04
1156.56
1156.32
1154.2
1149.11
1160.05
1161.58
1161.34
1159.21
1154.1
1155.98
1157.5
1157.26
1155.13
1150.04
1161.27
1162.8
1162.56
1160.43
1155.32
1157.34
1158.86
1158.62
1156.5
1151.4
1163.07
1164.61
1164.37
1162.24
1157.12
1159.13
1160.66
1160.42
1158.3
1153.2
1165.5
1167.04
1166.81
1164.67
1159.55
1166.99
1168.54
1168.31
1166.18
1161.06
1168.17
1169.72
1169.5
1167.38
1162.26
1168.99
1170.54
1170.33
1168.23
1163.12
1169.51
1171.05
1170.86
1168.79
1163.7
1169.72
1171.26
1171.07
1169.03
1163.97
1162.18
1163.72
1163.49
1161.36
1156.25
1163.24
1164.78
1164.56
1162.43
1157.32
1164.13
1165.67
1165.45
1163.34
1158.23
1164.79
1166.34
1166.13
1164.02
1158.92
1165.2
1166.75
1166.55
1164.46
1159.37
1165.37
1166.92
1166.73
1164.64
1159.56
1168.61
1167.1
1162.88
1160.61
1155.21
1157.64
1160.68
1168.66
1166.78
1166.04
1160.74
1161.94
1161.97
1158.91
1156.54
1154.54
1169.02
1166.86
1163.38
1164.07
1165.48
1165.65
1164.71
1163.69
1155.71
1158.86
1160.47
1162.11
1168.91
1167.13
1168.38
1166.75
1166.45
1167.33
1164.56
1161.67
1164.66
1173.21
1174.35
1174.01
1172.09
1167.37
1171.73
1173.2
1173.03
1171.07
1166.12
1167.65
1169.2
1168.97
1166.84
1161.71
1165.38
1166.91
1166.68
1164.55
1159.43
1159.96
1161.5
1161.26
1159.14
1154.04
1162.4
1163.93
1163.7
1161.57
1156.46
1165.46
1167
1166.77
1164.63
1159.51
1173.07
1174.08
1173.68
1171.7
1167.06
1171.18
1172.13
1171.64
1169.51
1164.71
1170.64
1172.07
1171.82
1169.74
1164.67
1165.3
1166.35
1165.85
1163.66
1158.66
1166.68
1168.19
1167.96
1165.84
1160.72
1166.64
1168.1
1167.84
1165.72
1160.62
1163.66
1165.19
1164.96
1162.84
1157.73
1161.27
1162.79
1162.56
1160.44
1155.34
1159.28
1160.81
1160.58
1158.46
1153.37
1173.57
1174.66
1174.29
1172.3
1167.57
1171.55
1173.04
1172.83
1170.75
1165.68
1168.14
1169.67
1169.45
1167.33
1162.21
1168.85
1170.39
1170.16
1168.04
1162.92
1170.23
1171.76
1171.54
1169.43
1164.32
1170.43
1171.97
1171.76
1169.64
1164.52
1169.49
1171.05
1170.82
1168.7
1163.57
1168.47
1170.01
1169.79
1167.66
1162.53
1160.46
1161.99
1161.76
1159.65
1154.54
1163.63
1165.17
1164.94
1162.81
1157.7
1165.24
1166.78
1166.55
1164.42
1159.31
1166.88
1168.42
1168.2
1166.07
1160.95
1173.5
1174.64
1174.31
1172.38
1167.65
1171.79
1173.29
1173.11
1171.1
1166.09
1173.08
1174.39
1174.13
1172.11
1167.14
1171.49
1173.03
1172.83
1170.76
1165.68
1171.22
1172.76
1172.55
1170.45
1165.35
1172.02
1173.52
1173.33
1171.28
1166.23
1169.34
1170.89
1170.67
1168.54
1163.42
1166.44
1167.99
1167.76
1165.63
1160.51
1169.44
1170.98
1170.76
1168.64
1163.51
1153.47
1158.56
1160.67
1160.91
1159.41
1154.71
1172.72
1172.95
1173.9
1173.63
1173.22
1173.29
1174.23
1174.38
1171.38
1169.6
1171.68
1170.21
1171.93
1172.14
1170.88
1173.22
1173.33
1174.27
1174.13
1173.42
1173.34
1174.42
1174.4
1171.92
1170.35
1172.08
1170.75
1172.13
1172.21
1171.15
1173.66
1173.62
1174.55
1174.56
1173.5
1173.19
1174.48
1174.26
1172.38
1170.45
1172.38
1170.69
1172.15
1172.05
1170.9
1173.15
1173
1173.91
1174.01
1172.66
1172.06
1173.68
1173.22
1171.77
1169.46
1171.65
1169.57
1171.16
1170.83
1169.65
1171.29
1171.07
1171.95
1172.1
1170.56
1169.63
1171.63
1171.01
1169.77
1167.04
1169.55
1167.1
1168.87
1168.26
1167.18
1166.32
1166.08
1166.96
1167.13
1165.52
1164.58
1166.6
1165.96
1164.71
1162.13
1164.51
1162.21
1163.85
1163.31
1162.35
1174.61
1174.92
1174.53
1174.24
1175.3
1175.56
1174.91
1175.15
1174.77
1174.97
1175.06
1175.22
1175.46
1175.65
1175.47
1175.09
1175.27
1174.9
1174.73
1175.49
1175.63
1175.1
1175.19
1175.31
1175.41
1175.46
1175.49
1175.66
1175.72
1175.57
1175.48
1175.52
1175.17
1175.14
1175.55
1175.53
1175.17
1175.06
1175.54
1175.03
1175.56
1175.08
1175.54
1175.52
1175.12
1174.86
1174.82
1174.51
1174.57
1174.71
1174.52
1174.36
1174.09
1174.67
1173.48
1174.61
1173.53
1174.42
1174.3
1173.6
1172.89
1172.81
1172.53
1172.63
1172.59
1172.18
1172.32
1171.92
1172.41
1170.58
1172.31
1170.69
1172
1171.75
1170.89
1167.84
1167.74
1167.52
1167.64
1167.49
1167.1
1167.28
1166.86
1167.16
1165.42
1167.1
1165.57
1166.86
1166.7
1165.88
1153.56
1154.39
1156.08
1157.15
1157.5
1158.6
1157.52
1158.52
1154.44
1156.07
1154.17
1155.7
1153.18
1154.51
1151.49
1152.53
1160.34
1163.17
1162.42
1166.05
1160.95
1164.35
1163.23
1167.43
1154.57
1154.95
1155.2
1155.04
1157.09
1157.24
1157.94
1157.43
1162.07
1160.15
1164.73
1162.19
1159.8
1160.96
1162.66
1164.62
1167.16
1168.2
1163.88
1165.87
1168.73
1169.82
1161.97
1163.43
1165.39
1166.16
1160.34
1161.49
1155.45
1152.78
1153.82
1150.36
1157.59
1154.55
1156.03
1152.33
1160.57
1157.16
1160.92
1156.53
1160.34
1155.52
1160.8
1155.73
1165.82
1167.73
1168.19
1169.54
1167.25
1169.18
1169.64
1171.14
1166.58
1167.67
1164.59
1166.26
1169.53
1170.59
1170.52
1171.23
1171.01
1172.23
1172
1172.91
1167.7
1168.56
1168.61
1169.11
1164.45
1159.56
1165.03
1160.42
1163.35
1159.1
1164.08
1159.81
1165.1
1159.9
1165.68
1160.88
1165.79
1160.4
1166.13
1161.24
1153.6
1153.19
1152.91
1153.32
1155.6
1154.83
1154.49
1154.71
1158.27
1157.32
1156.66
1156.73
1162.62
1163.83
1161.91
1161.99
1158.71
1162.44
1160.96
1159.75
1160.67
1158.5
1165.91
1164.88
1164.21
1162.92
1159.31
1153.5
1153.07
1155.43
1155.93
1154.56
1153.81
1156.24
1156.6
1156.4
1155.22
1157.45
1157.43
1161.42
1159.4
1159.93
1157.44
1159.47
1157.37
1160.25
1158.8
1158.56
1157.74
1165.67
1165.14
1164.24
1162.52
1163.38
1161.31
1162.04
1159.87
1158.74
1156.66
1166.95
1162.75
1168.55
1164.24
1169.24
1168.07
1171.09
1169.75
1166.07
1160.92
1164.89
1160.01
1169.56
1165.17
1170.04
1165.51
1172.08
1170.51
1172.57
1170.84
1166.96
1161.62
1167.38
1161.9
1163.08
1157.92
1158.77
1154.08
1162.41
1157.43
1158.5
1154.13
1163.66
1158.47
1159.06
1154.31
1164.21
1158.72
1159.63
1154.88
1151.42
1148.6
1143.02
1153.82
1150.96
1145.45
1152.12
1149.37
1143.85
1154.54
1151.76
1146.15
1153.59
1151.21
1145.81
1155.25
1152.37
1146.52
1157.64
1155.44
1149.76
1155.11
1152.98
1147.54
1155.2
1152.76
1147.18
1156.97
1154.47
1148.8
1154.82
1151.58
1145.27
1163.38
1160.21
1153.44
1158.91
1155.5
1148.8
1157.41
1154.05
1147.54
1155.97
1152.57
1146.1
1151.39
1147.72
1141.06
1163.01
1165.96
1164.98
1168.68
1161.86
1165.31
1164.09
1168.32
1159.34
1162.22
1159.9
1162.18
1161.66
1163.94
1162.44
1164.09
1166.45
1164.67
1168.83
1166.54
1165.88
1166.92
1169.63
1170.52
1169.57
1170.6
1166.06
1167.09
1169.25
1169.79
1165.94
1166.69
1166.45
1169.8
1164.44
1166.82
1167.56
1170.66
1165.9
1168.04
1168.99
1171.84
1169.02
1170.76
1167.91
1168.83
1167.98
1168.36
1169.36
1171.77
1171.38
1173.37
1168.44
1170.55
1170.71
1172.43
1171.81
1174.02
1170.24
1172.83
1172.52
1174.28
1173.37
1174.86
1172.01
1173.47
1172.95
1174.13
1172.65
1174.72
1173.36
1175.2
1172.37
1173.23
1174.28
1174.02
1171.67
1173.07
1173.48
1173.52
1172.69
1173.12
1174.78
1174.34
1173.12
1173.18
1175.13
1174.55
1165.91
1165.09
1170.67
1170.13
1166.6
1165.61
1171.12
1170.44
1167.69
1166.75
1171.74
1171.08
1167.02
1165.38
1168.45
1170.7
1172.59
1164.05
1165.52
1166.58
1169.38
1171.87
1167.5
1169.34
1171.14
1172.41
1172.88
1163.7
1161.63
1168.49
1165.96
1164.31
1162.37
1169.02
1166.72
1165.56
1163.81
1169.93
1167.95
1163.25
1161.56
1165.07
1163.46
1166.73
1165.19
1169.2
1167.73
1171.22
1169.39
1167.52
1167.57
1169.47
1169.46
1171.2
1170.92
1172.23
1171.34
1172.21
1170.23
1172.53
1172.63
1173.97
1173.99
1171.12
1171.16
1172.88
1172.8
1174.46
1174.15
1173.4
1173.09
1174.68
1174.58
1175.1
1174.84
1173.72
1173.49
1174.21
1173.82
1175.04
1174.64
1175.38
1174.83
1174.35
1173.29
1173.08
1170.78
1173.61
1172.48
1172.73
1170.38
1174.77
1173.7
1173.27
1170.95
1175.02
1173.86
1173.49
1171.27
1158.53
1155.05
1149.16
1161.34
1157.49
1151.63
1159.52
1156.13
1150.29
1162.43
1158.72
1152.75
1161.51
1158.59
1152.9
1164.07
1160.32
1154.07
1160.11
1157.89
1152.16
1162.03
1159.67
1153.94
1163.56
1160.79
1154.87
1165.84
1163.02
1157.15
1165.48
1161.59
1154.97
1166.47
1163.5
1156.76
1168.37
1165.41
1158.74
1169.5
1166.33
1159.54
1169.22
1165.85
1159.09
1165.92
1162.11
1155.09
1170.86
1170.32
1168.45
1164.4
1167.72
1167.2
1165.42
1161.72
1171.44
1170.8
1168.83
1164.59
1168.71
1168.08
1166.16
1162.2
1172.17
1171.35
1169.44
1165.24
1170.96
1170.18
1168.17
1163.98
1168.66
1167.8
1165.93
1162.2
1167.89
1166.93
1165.23
1161.97
1172.72
1171.65
1169.66
1165.4
1172.3
1170.79
1169.07
1164.99
1172.53
1171.44
1169.66
1165.66
1171.82
1170.35
1168.78
1164.89
1172.55
1171.46
1169.36
1165.02
1172.61
1171.07
1169.2
1164.89
1172.44
1171.31
1169.27
1165.16
1172.8
1171.23
1169.31
1164.96
1171.86
1171.26
1169.44
1165.22
1170.91
1170.13
1168.62
1164.51
1171.96
1171.25
1169.44
1165.22
1170.83
1169.95
1168.48
1164.43
1172
1171.1
1169.37
1165.24
1170.84
1169.79
1168.34
1164.34
1171.79
1170.61
1169.02
1165.05
1170.77
1169.52
1168.13
1164.22
1171.16
1169.7
1168.3
1164.54
1168.27
1167.22
1166
1161.8
1164.09
1162.79
1161.09
1156.26
1168.41
1167.26
1166.02
1161.84
1164.2
1162.8
1161.06
1156.21
1168.64
1167.33
1166.06
1161.86
1164.39
1162.81
1161.05
1156.25
1168.97
1167.46
1166.14
1161.96
1164.65
1162.87
1161.06
1156.25
1169.32
1167.6
1166.21
1162.05
1164.87
1162.86
1161.01
1156.17
1169.62
1167.64
1166.16
1161.93
1165.52
1163.23
1161.25
1156.29
1169.49
1167.62
1166.18
1161.98
1165.24
1163.06
1161.15
1156.28
1169.67
1167.62
1166.15
1161.9
1165.62
1163.25
1161.27
1156.37
1169.75
1167.66
1166.17
1161.93
1165.7
1163.27
1161.28
1156.39
1158.69
1155.3
1152.6
1149.29
1143.16
1156.67
1153.44
1150.76
1147.46
1141.34
1158.75
1155.34
1152.62
1149.31
1143.18
1156.86
1153.6
1150.91
1147.61
1141.48
1158.95
1155.45
1152.72
1149.4
1143.27
1158.12
1154.81
1152.11
1148.8
1142.67
1156.98
1153.7
1151
1147.7
1141.57
1157.09
1153.81
1151.11
1147.81
1141.68
1158.96
1155.44
1152.71
1149.39
1143.25
1156.79
1152.93
1150.15
1146.84
1140.72
1158.61
1154.97
1152.22
1148.9
1142.77
1156.35
1152.45
1149.68
1146.36
1140.25
1158.76
1155.26
1152.53
1149.21
1143.08
1156.34
1152.49
1149.71
1146.4
1140.28
1158.87
1155.37
1152.63
1149.31
1143.18
1156.12
1152.25
1149.47
1146.16
1140.04
1158.27
1154.63
1151.88
1148.57
1142.45
1155.56
1151.67
1148.9
1145.59
1139.48
1158.15
1154.48
1151.73
1148.42
1142.29
1155.47
1151.57
1148.79
1145.49
1139.37
1157.87
1154.12
1151.36
1148.05
1141.92
1155.25
1151.32
1148.54
1145.23
1139.11
1156.83
1152.96
1150.18
1146.87
1140.74
1154.61
1150.65
1147.87
1144.56
1138.44
1155.16
1151.24
1148.46
1145.15
1139.04
1151.39
1151.14
1151.63
1151.32
1151.95
1151.5
1152.2
1151.54
1152.13
1151.33
1152.04
1150.66
1151.91
1150.7
1152.23
1150.83
1152.44
1151.1
1146.66
1142.79
1139.53
1135.83
1128.94
1146.08
1141.95
1138.5
1134.66
1127.69
1146.72
1142.82
1139.56
1135.85
1128.96
1146.12
1141.96
1138.51
1134.64
1127.65
1146.83
1142.88
1139.6
1135.89
1129
1146.21
1142.01
1138.54
1134.67
1127.68
1146.91
1142.93
1139.64
1135.91
1129.02
1146.28
1142.07
1138.58
1134.69
1127.7
1146.88
1142.91
1139.6
1135.86
1128.98
1146.28
1142.09
1138.59
1134.69
1127.7
1147.08
1143.12
1139.77
1136
1129.13
1146.3
1142.19