/*--------------------------------*- C++ -*----------------------------------*\
  =========                 |
  \\      /  F ield         | OpenFOAM: The Open Source CFD Toolbox
   \\    /   O peration     | Website:  https://openfoam.org
    \\  /    A nd           | Version:  13
     \\/     M anipulation  |
\*---------------------------------------------------------------------------*/
FoamFile
{
    format      ascii;
    class       volScalarField;
    location    "244.831886";
    object      T;
}
// * * * * * * * * * * * * * * * * * * * * * * * * * * * * * * * * * * * * * //

dimensions      [0 0 0 1 0 0 0];

internalField   nonuniform List<scalar> 
5712
(
1156.75
1156.67
1156.54
1156.42
1156.22
1156.1
1155.77
1155.67
1155.86
1155.74
1156.21
1156.09
1156.47
1156.35
1156.66
1156.57
1156.12
1155.97
1155.91
1155.7
1155.58
1155.38
1155.39
1155.13
1157.04
1157.5
1156.95
1157.39
1156.84
1157.28
1156.71
1157.12
1156.38
1156.63
1156.16
1156.47
1157.01
1156.75
1155.65
1155.26
1155.44
1155.15
1155.15
1154.83
1154.9
1154.66
1156.12
1155.71
1155.89
1155.58
1156.49
1156.1
1158.03
1158.35
1157.81
1158.14
1157.81
1158.21
1157.55
1157.91
1157.49
1158.02
1157.09
1157.59
1156.78
1157.27
1156.43
1156.93
1156.01
1155.94
1155.67
1155.64
1155.29
1155.2
1155.02
1154.93
1156.3
1156.4
1156.7
1156.72
1155.39
1155.39
1155.13
1155.18
1154.78
1154.71
1154.55
1154.51
1155.98
1156.13
1155.69
1155.92
1156.92
1157.51
1157.15
1157.82
1157.35
1157.96
1157.48
1158.18
1156.56
1157.14
1156.87
1157.53
1156.25
1156.82
1156.65
1157.3
1158.78
1159.47
1158.9
1159.58
1158.58
1159.22
1158.79
1159.44
1158.23
1158.72
1158.6
1159.13
1156.49
1155.63
1157.26
1157.85
1158.47
1155.75
1156.66
1157.58
1158.2
1158.88
1155.53
1156.34
1157.12
1157.85
1158.57
1160.11
1160.42
1160.46
1160.74
1159.79
1160.15
1160.25
1160.55
1159.23
1159.63
1159.87
1160.23
1155.95
1156.27
1156.93
1157.37
1157.84
1158.3
1158.57
1159.02
1159.52
1159.98
1155.68
1155.94
1156.58
1157.04
1157.42
1157.95
1158.26
1158.83
1159.32
1159.92
1156.17
1156.68
1155.79
1156.25
1155.28
1155.43
1154.95
1155.03
1156.69
1157.3
1157.05
1157.7
1155.48
1155.94
1155.27
1155.71
1154.68
1154.76
1154.49
1154.55
1156.36
1156.98
1156.15
1156.76
1157.71
1158.45
1158.97
1159.86
1158
1158.78
1159.16
1160.04
1157.44
1158.15
1158.78
1159.66
1157.18
1157.91
1158.51
1159.35
1160.51
1160.64
1160.89
1160.58
1160.63
1160.86
1160.31
1160.47
1160.74
1160.42
1160.48
1160.73
1159.88
1160.1
1160.4
1160.19
1160.28
1160.56
1156.67
1157.12
1157.6
1157.84
1158.24
1158.66
1158.73
1159.07
1159.44
1159.37
1159.65
1160.01
1160
1160.14
1160.47
1156.31
1156.82
1157.36
1157.65
1158.18
1158.72
1158.57
1159.03
1159.52
1159.31
1159.66
1160.08
1159.99
1160.17
1160.55
1154.61
1154.45
1154.47
1154.26
1155.05
1154.85
1154.88
1154.63
1154.52
1154.18
1154.48
1154.16
1154.42
1154.12
1154.35
1154.06
1154.12
1154.26
1154.03
1154.19
1154.06
1153.94
1154.09
1153.9
1154.43
1154.22
1154.03
1153.85
1153.9
1153.73
1153.87
1153.7
1153.83
1153.53
1153.89
1153.6
1153.79
1153.48
1153.8
1153.51
1153.75
1153.41
1153.67
1153.36
1153.61
1153.34
1153.46
1153.23
1154.23
1154.08
1154.04
1153.88
1154.69
1154.56
1154.47
1154.33
1153.74
1153.55
1153.91
1153.73
1153.86
1153.7
1153.67
1153.55
1154.26
1154.13
1154.06
1153.96
1153.58
1153.39
1153.41
1153.25
1153.49
1153.22
1153.33
1153.17
1153.62
1153.33
1153.49
1153.3
1153.36
1153.12
1153.19
1153.06
1153.21
1153.01
1153.07
1152.96
1153.84
1153.99
1153.56
1153.71
1153.84
1153.99
1153.54
1153.7
1153.83
1153.97
1153.51
1153.65
1154.36
1154.91
1154.02
1153.75
1153.46
1155.02
1154.48
1154.16
1153.89
1153.59
1154.81
1154.28
1153.9
1153.64
1153.43
1154.24
1154.59
1153.97
1154.31
1154.22
1154.55
1153.93
1154.25
1154.17
1154.49
1153.85
1154.15
1155.16
1155.43
1154.59
1154.86
1154.26
1154.54
1154.01
1154.3
1153.73
1154.01
1154.9
1155.05
1154.35
1154.51
1153.98
1154.17
1153.75
1153.98
1153.56
1153.85
1154.05
1154.1
1153.84
1153.84
1154.55
1154.58
1154.29
1154.25
1153.55
1153.62
1153.73
1153.85
1153.68
1153.63
1153.52
1153.46
1154.1
1154.01
1153.92
1153.82
1153.4
1153.43
1153.27
1153.28
1153.37
1153.52
1153.28
1153.52
1153.53
1153.73
1153.41
1153.68
1153.23
1153.35
1153.17
1153.38
1153.12
1153.22
1153.07
1153.25
1155.06
1155.53
1155.98
1154.89
1155.42
1155.87
1155
1155.48
1155.93
1154.81
1155.35
1155.82
1154.91
1155.37
1155.84
1154.69
1155.25
1155.75
1155.79
1156.24
1156.73
1155.23
1155.7
1156.2
1154.92
1155.41
1155.92
1154.7
1155.19
1155.68
1154.55
1155.14
1155.69
1155.34
1155.83
1156.38
1154.81
1155.31
1155.87
1154.52
1155.05
1155.63
1154.39
1154.95
1155.53
1154.42
1155.04
1155.63
1153.4
1153.6
1154.13
1155.11
1153.49
1153.7
1154.25
1155.24
1153.36
1153.57
1154.1
1155.09
1153.42
1153.64
1154.2
1155.19
1153.31
1153.53
1154.04
1155
1153.29
1153.53
1154.08
1155.06
1153.3
1153.58
1154.16
1155.17
1153.25
1153.55
1154.16
1155.18
1153.19
1153.45
1153.99
1154.96
1153.21
1153.49
1153.98
1154.85
1153.27
1153.51
1153.99
1154.89
1153.3
1153.55
1154.01
1154.83
1153.12
1153.41
1153.99
1155
1153.13
1153.43
1153.95
1154.85
1153.05
1153.37
1153.96
1154.97
1153.05
1153.38
1153.91
1154.81
1153.41
1153.59
1154.07
1155
1153.54
1153.69
1154.1
1154.9
1153.4
1153.58
1154.06
1154.98
1153.53
1153.69
1154.1
1154.9
1153.39
1153.58
1154.04
1154.93
1153.51
1153.68
1154.09
1154.88
1153.38
1153.59
1154.03
1154.87
1153.48
1153.67
1154.08
1154.85
1153.4
1153.62
1154.04
1154.81
1153.73
1153.85
1154.22
1154.8
1153.95
1154.05
1154.43
1154.97
1153.71
1153.84
1154.21
1154.79
1153.92
1154.04
1154.43
1154.97
1153.66
1153.82
1154.2
1154.78
1153.88
1154.02
1154.41
1154.96
1153.6
1153.78
1154.17
1154.76
1153.82
1153.99
1154.4
1154.94
1153.52
1153.74
1154.14
1154.73
1153.75
1153.96
1154.38
1154.93
1153.36
1153.65
1154.1
1154.71
1153.57
1153.85
1154.31
1154.89
1153.44
1153.69
1154.12
1154.72
1153.66
1153.9
1154.34
1154.91
1153.29
1153.61
1154.08
1154.7
1153.49
1153.8
1154.28
1154.86
1153.23
1153.56
1154.05
1154.68
1153.41
1153.76
1154.25
1154.84
1156.61
1157.81
1158.84
1159.68
1160.33
1156.68
1157.88
1158.9
1159.74
1160.39
1156.6
1157.81
1158.84
1159.68
1160.33
1156.67
1157.87
1158.9
1159.73
1160.38
1156.58
1157.8
1158.84
1159.68
1160.32
1156.61
1157.82
1158.85
1159.69
1160.34
1156.64
1157.85
1158.88
1159.73
1160.37
1156.63
1157.84
1158.87
1159.72
1160.37
1156.57
1157.8
1158.83
1159.67
1160.32
1156.63
1157.88
1158.92
1159.77
1160.41
1156.58
1157.82
1158.85
1159.69
1160.34
1156.65
1157.9
1158.94
1159.78
1160.43
1156.57
1157.8
1158.83
1159.68
1160.32
1156.64
1157.89
1158.94
1159.78
1160.43
1156.55
1157.78
1158.82
1159.67
1160.32
1156.63
1157.9
1158.94
1159.78
1160.43
1156.61
1157.84
1158.87
1159.71
1160.36
1156.7
1157.95
1158.98
1159.82
1160.46
1156.61
1157.84
1158.88
1159.72
1160.36
1156.7
1157.95
1158.98
1159.82
1160.47
1156.61
1157.85
1158.89
1159.73
1160.37
1156.7
1157.95
1158.99
1159.83
1160.47
1156.64
1157.89
1158.93
1159.77
1160.42
1156.72
1157.97
1159.01
1159.85
1160.49
1156.69
1157.95
1158.99
1159.83
1160.47
1161.93
1162.13
1161.84
1162.05
1161.68
1161.91
1161.48
1161.74
1161.27
1161.58
1160.95
1161.3
1161.11
1161.46
1160.79
1161.13
1160.62
1160.93
1164.11
1166.5
1168.51
1170.08
1171.14
1164.08
1166.49
1168.52
1170.09
1171.18
1164.07
1166.48
1168.5
1170.07
1171.14
1164.04
1166.47
1168.5
1170.09
1171.17
1163.99
1166.44
1168.47
1170.04
1171.12
1163.97
1166.43
1168.47
1170.07
1171.15
1163.89
1166.37
1168.43
1170.01
1171.09
1163.87
1166.37
1168.44
1170.04
1171.13
1163.76
1166.29
1168.37
1169.97
1171.05
1163.76
1166.3
1168.39
1170
1171.1
1163.49
1166.09
1168.22
1169.85
1170.95
1163.51
1166.12
1168.25
1169.89
1171
1163.62
1166.19
1168.3
1169.91
1171
1163.64
1166.22
1168.33
1169.95
1171.05
1163.35
1165.98
1168.14
1169.78
1170.88
1163.37
1166.01
1168.16
1169.82
1170.93
1163.21
1165.87
1168.05
1169.71
1170.82
1163.21
1165.88
1168.07
1169.74
1170.86
1154.12
1154.43
1154.7
1154.34
1154.79
1154.75
1154.73
1154.67
1154.84
1154.75
1155.25
1155.15
1155.47
1155.35
1155.16
1155.06
1155.03
1154.97
1155.01
1154.96
1154.36
1154.27
1155.18
1155.54
1155.66
1155.69
1155.36
1155.22
1155.64
1155.14
1156.01
1156.56
1155.23
1155.39
1155.81
1155.34
1155.53
1155.56
1154.86
1154.83
1155.05
1154.97
1154.86
1154.77
1154.87
1155.01
1155.48
1155.39
1155.22
1155.13
1154.51
1154.38
1154.59
1154.49
1154.62
1154.66
1154.9
1155.22
1154.9
1153.8
1153.51
1153.38
1153.4
1153.55
1153.86
1153.62
1153.51
1153.55
1153.75
1154.9
1154.77
1154.76
1154.87
1155.11
1155.27
1155.16
1155.15
1155.27
1155.52
1155.39
1155.27
1155.26
1155.37
1155.61
1155.43
1155.31
1155.31
1155.42
1155.67
1155.08
1154.96
1154.95
1155.06
1155.3
1154.61
1154.23
1154.04
1153.99
1154.1
1154.99
1154.59
1154.38
1154.34
1154.47
1154.71
1154.43
1154.28
1154.28
1154.47
1155.41
1155.02
1154.83
1154.8
1154.96
1155.97
1155.58
1155.38
1155.36
1155.51
1154.89
1154.69
1154.61
1154.67
1154.88
1154.99
1154.74
1154.61
1154.64
1154.83
1155.43
1155.19
1155.07
1155.1
1155.3
1155.02
1154.85
1154.79
1154.86
1155.08
1155.19
1155
1154.92
1154.98
1155.19
1155.25
1155.08
1155.03
1155.11
1155.33
1154.3
1153.99
1153.82
1153.81
1153.94
1154.44
1154.21
1154.1
1154.13
1154.33
1154.73
1154.55
1154.48
1154.55
1154.77
1154.66
1154.49
1154.44
1154.53
1154.75
1154.53
1154.34
1154.27
1154.33
1154.55
1154.46
1154.29
1154.23
1154.31
1154.53
1154.58
1154.43
1154.4
1154.5
1154.73
1154.71
1154.57
1154.54
1154.64
1154.87
1155.19
1155.05
1155.02
1155.12
1155.35
1155.11
1154.98
1154.96
1155.06
1155.3
1154.92
1154.76
1154.71
1154.8
1155.03
1154.83
1154.69
1154.65
1154.75
1154.98
1153.96
1153.67
1153.53
1153.54
1153.68
1153.99
1153.77
1153.67
1153.71
1153.92
1154.14
1153.88
1153.75
1153.76
1153.93
1154.14
1153.95
1153.87
1153.93
1154.15
1154.3
1154.12
1154.06
1154.13
1154.35
1154.29
1154.06
1153.96
1154
1154.2
1154.61
1154.46
1154.42
1154.52
1154.75
1154.94
1154.8
1154.78
1154.89
1155.13
1154.59
1154.43
1154.39
1154.48
1154.7
1154.33
1154.5
1154.35
1154.53
1153.92
1154.12
1153.91
1154.09
1154.36
1154.39
1154.54
1154.51
1153.93
1153.94
1154.11
1154.05
1154.77
1155.19
1154.92
1155.33
1154.77
1155.16
1154.95
1155.32
1154.96
1154.8
1154.87
1154.76
1155.1
1155.26
1154.76
1154.95
1154.68
1154.89
1154.34
1154.54
1154.23
1154.42
1155.17
1155.37
1155.05
1155.28
1155.48
1155.72
1155.58
1155.92
1155.7
1156.01
1155.55
1155.95
1155.7
1156.06
1155.49
1156.03
1155.59
1156.07
1155.79
1156.28
1156.08
1156.58
1154.52
1154.63
1154.6
1154.73
1153.97
1154.01
1154.07
1154.1
1155.12
1155.43
1155.04
1155.33
1154.74
1154.85
1154.92
1155
1154.2
1154.21
1154.36
1154.35
1155.26
1155.56
1155.45
1155.73
1155.65
1156.25
1156.16
1156.84
1155.6
1156.25
1156.07
1156.79
1155.79
1156.36
1156.28
1156.95
1155.99
1156.56
1156.46
1157.11
1155.61
1155.81
1155.99
1156.3
1155.58
1155.74
1156.04
1156.34
1155.52
1155.61
1156.14
1156.39
1154.5
1153.94
1155.05
1155.63
1156.38
1153.92
1154.45
1155
1155.62
1156.51
1153.96
1154.57
1155.26
1156.02
1156.8
1156.13
1156.28
1157.13
1157.42
1155.98
1156.13
1157.07
1157.36
1155.76
1155.88
1156.99
1157.29
1153.93
1154
1154.5
1154.59
1155.09
1155.18
1155.81
1155.93
1157.09
1157.4
1153.96
1154.04
1154.63
1154.82
1155.38
1155.63
1156.26
1156.55
1157.43
1157.81
1154.78
1155.12
1154.87
1155.22
1154.03
1154.05
1154.1
1154.11
1155.72
1156.22
1155.61
1156.08
1154.95
1155.34
1155.1
1155.52
1154.2
1154.22
1154.33
1154.37
1155.8
1156.36
1155.97
1156.56
1156.74
1157.38
1158.03
1158.85
1156.57
1157.19
1157.8
1158.56
1156.87
1157.54
1158.23
1159.07
1156.99
1157.7
1158.34
1159.16
1156.33
1156.45
1157.22
1157.23
1156.18
1156.32
1157.18
1157.18
1155.97
1156.16
1157.14
1157.15
1154.16
1154.45
1154.76
1155.03
1155.34
1155.57
1156.05
1156.27
1157.21
1157.2
1154.2
1154.51
1155.08
1155.36
1155.86
1156.07
1156.64
1156.73
1157.44
1157.37
1153.24
1153.22
1153.41
1153.34
1153.54
1153.53
1153.73
1153.65
1153.02
1152.86
1153.18
1153.02
1153.03
1152.88
1153.2
1153.05
1153.17
1153.02
1153.15
1153.04
1152.91
1153.06
1153.5
1153.7
1153.81
1154
1153.39
1153.61
1153.32
1153.52
1153.26
1153.47
1152.77
1152.71
1152.92
1152.85
1152.77
1152.69
1152.93
1152.84
1152.79
1152.68
1152.91
1152.78
1153.09
1152.95
1153.27
1153.09
1153.17
1153.16
1153.25
1153.21
1153.52
1153.51
1153.61
1153.58
1153.01
1152.96
1152.94
1152.92
1153.37
1153.3
1153.51
1153.41
1153.73
1153.68
1153.89
1153.81
1153.13
1153.04
1153.26
1153.13
1152.84
1152.72
1152.82
1152.75
1152.78
1152.68
1152.78
1152.73
1152.95
1152.8
1152.88
1152.8
1153.08
1152.9
1152.97
1152.87
1152.7
1152.73
1152.65
1152.69
1152.72
1152.75
1152.65
1152.7
1152.75
1152.77
1152.66
1152.71
1153.14
1153.48
1152.91
1152.76
1152.69
1153.48
1153.16
1152.94
1152.79
1152.72
1153.47
1153.13
1152.9
1152.77
1152.73
1152.84
1153.03
1152.83
1153.04
1152.84
1153.02
1152.82
1153.02
1152.84
1153.01
1152.8
1152.99
1153.48
1153.56
1153.16
1153.25
1152.96
1153.07
1152.83
1152.97
1152.79
1152.96
1153.45
1153.48
1153.12
1153.16
1152.91
1152.99
1152.8
1152.93
1152.79
1152.96
1153.11
1153.09
1153.17
1153.12
1153.46
1153.41
1153.54
1153.45
1152.96
1152.98
1152.9
1152.95
1153.28
1153.2
1153.39
1153.32
1153.65
1153.54
1153.77
1153.66
1153.05
1153.05
1153.15
1153.15
1152.85
1152.94
1152.86
1153.02
1152.81
1152.92
1152.82
1152.99
1152.92
1153
1152.92
1153.08
1153.01
1153.1
1152.99
1153.16
1153.27
1153.49
1153.34
1153.6
1153.24
1153.48
1153.32
1153.6
1153.22
1153.48
1153.28
1153.6
1153.72
1154
1153.43
1153.72
1153.26
1153.56
1153.17
1153.48
1153.26
1153.63
1153.61
1153.94
1153.31
1153.66
1153.18
1153.54
1153.17
1153.55
1153.29
1153.72
1152.83
1153.21
1153.87
1154.93
1152.96
1153.35
1154.01
1155.08
1152.82
1153.2
1153.85
1154.93
1152.95
1153.33
1153.98
1155.05
1152.81
1153.19
1153.81
1154.85
1152.89
1153.27
1153.89
1154.94
1153.04
1153.4
1154.04
1155.08
1153.15
1153.49
1154.12
1155.15
1152.85
1153.22
1153.82
1154.85
1152.92
1153.29
1153.83
1154.75
1152.83
1153.21
1153.78
1154.75
1152.9
1153.28
1153.82
1154.7
1152.9
1153.26
1153.88
1154.92
1152.95
1153.31
1153.86
1154.78
1152.98
1153.32
1153.93
1154.94
1152.99
1153.34
1153.88
1154.78
1152.78
1153.17
1153.79
1154.8
1152.85
1153.23
1153.79
1154.69
1152.79
1153.18
1153.78
1154.79
1152.86
1153.24
1153.79
1154.69
1152.81
1153.2
1153.78
1154.76
1152.88
1153.26
1153.8
1154.69
1152.85
1153.24
1153.79
1154.71
1152.9
1153.28
1153.81
1154.67
1152.91
1153.3
1153.82
1154.65
1152.99
1153.37
1153.9
1154.55
1153.18
1153.56
1154.1
1154.71
1152.99
1153.37
1153.9
1154.55
1153.18
1153.56
1154.1
1154.71
1152.99
1153.38
1153.9
1154.55
1153.18
1153.57
1154.1
1154.71
1153
1153.38
1153.9
1154.55
1153.19
1153.58
1154.11
1154.72
1153.01
1153.39
1153.91
1154.55
1153.2
1153.59
1154.12
1154.73
1153.07
1153.45
1153.96
1154.6
1153.24
1153.63
1154.15
1154.76
1153.03
1153.42
1153.93
1154.57
1153.21
1153.6
1154.13
1154.74
1153.11
1153.48
1153.99
1154.63
1153.29
1153.67
1154.19
1154.79
1153.17
1153.52
1154.02
1154.65
1153.35
1153.71
1154.22
1154.81
1156.5
1157.75
1158.8
1159.65
1160.31
1156.58
1157.81
1158.86
1159.71
1160.37
1156.5
1157.75
1158.8
1159.65
1160.31
1156.58
1157.81
1158.86
1159.71
1160.36
1156.5
1157.75
1158.8
1159.65
1160.31
1156.54
1157.78
1158.82
1159.67
1160.32
1156.59
1157.82
1158.86
1159.71
1160.36
1156.61
1157.83
1158.87
1159.71
1160.36
1156.5
1157.76
1158.81
1159.66
1160.31
1156.57
1157.85
1158.9
1159.75
1160.4
1156.51
1157.77
1158.82
1159.67
1160.33
1156.58
1157.86
1158.92
1159.77
1160.42
1156.52
1157.77
1158.82
1159.66
1160.32
1156.6
1157.87
1158.92
1159.77
1160.42
1156.53
1157.77
1158.82
1159.66
1160.31
1156.62
1157.89
1158.93
1159.78
1160.43
1156.51
1157.78
1158.83
1159.68
1160.34
1156.59
1157.88
1158.94
1159.79
1160.44
1156.51
1157.78
1158.84
1159.69
1160.34
1156.59
1157.89
1158.94
1159.79
1160.45
1156.52
1157.8
1158.85
1159.7
1160.36
1156.6
1157.9
1158.95
1159.8
1160.45
1156.56
1157.84
1158.9
1159.75
1160.4
1156.63
1157.92
1158.98
1159.83
1160.48
1156.62
1157.9
1158.96
1159.81
1160.46
1159.23
1159.45
1159.26
1159.49
1159.33
1159.57
1159.44
1159.68
1159.63
1159.83
1160.11
1160.37
1159.89
1160.12
1160.29
1160.58
1160.46
1160.75
1162.14
1165.1
1167.46
1169.24
1170.42
1162.08
1165.06
1167.46
1169.25
1170.44
1162.17
1165.12
1167.48
1169.25
1170.42
1162.12
1165.09
1167.47
1169.27
1170.46
1162.23
1165.16
1167.51
1169.28
1170.44
1162.17
1165.13
1167.5
1169.29
1170.48
1162.32
1165.22
1167.55
1169.31
1170.47
1162.26
1165.19
1167.54
1169.32
1170.5
1162.45
1165.31
1167.62
1169.36
1170.52
1162.37
1165.26
1167.6
1169.36
1170.54
1162.77
1165.53
1167.78
1169.49
1170.63
1162.71
1165.49
1167.76
1169.49
1170.65
1162.61
1165.41
1167.69
1169.42
1170.57
1162.53
1165.36
1167.67
1169.42
1170.59
1162.92
1165.64
1167.87
1169.56
1170.69
1162.89
1165.63
1167.87
1169.57
1170.72
1163.07
1165.76
1167.96
1169.64
1170.76
1163.05
1165.76
1167.97
1169.66
1170.79
1153.87
1154.17
1153.96
1153.65
1153.24
1153.41
1153.24
1153.43
1153.55
1153.75
1153.55
1153.72
1156.88
1156.83
1156.7
1156.49
1156.21
1155.87
1156.91
1156.86
1156.73
1156.54
1156.28
1155.98
1157.02
1157.22
1156.96
1157.15
1156.81
1156.99
1156.58
1156.71
1156.26
1156.36
1155.89
1156.01
1155.51
1155.17
1154.87
1154.63
1154.45
1154.32
1155.66
1155.34
1155.06
1154.83
1154.65
1154.52
1156.64
1156.54
1156.56
1156.69
1156.94
1156.59
1156.49
1156.5
1156.64
1156.88
1156.45
1156.35
1156.37
1156.5
1156.75
1156.24
1156.14
1156.15
1156.28
1156.53
1155.96
1155.85
1155.86
1155.99
1156.24
1155.61
1155.5
1155.51
1155.63
1155.88
1156.66
1156.56
1156.58
1156.71
1156.96
1156.61
1156.51
1156.53
1156.66
1156.9
1156.48
1156.38
1156.4
1156.53
1156.77
1156.29
1156.18
1156.2
1156.33
1156.57
1156.03
1155.92
1155.93
1156.06
1156.3
1155.72
1155.61
1155.61
1155.74
1155.98
1156.77
1156.68
1156.69
1156.83
1157.07
1156.98
1156.88
1156.9
1157.03
1157.27
1156.71
1156.62
1156.63
1156.76
1157.01
1156.91
1156.81
1156.83
1156.96
1157.2
1156.57
1156.47
1156.48
1156.61
1156.86
1156.74
1156.64
1156.66
1156.79
1157.03
1156.33
1156.23
1156.24
1156.37
1156.61
1156.46
1156.36
1156.38
1156.5
1156.75
1156.01
1155.9
1155.91
1156.04
1156.28
1156.11
1156.01
1156.02
1156.14
1156.39
1155.63
1155.52
1155.53
1155.65
1155.9
1155.75
1155.63
1155.64
1155.76
1156.01
1155.24
1155.13
1155.12
1155.24
1155.49
1154.89
1154.76
1154.75
1154.86
1155.1
1154.58
1154.44
1154.41
1154.51
1154.74
1154.32
1154.15
1154.11
1154.19
1154.42
1154.11
1153.93
1153.86
1153.94
1154.16
1153.97
1153.77
1153.7
1153.76
1153.98
1155.39
1155.27
1155.27
1155.39
1155.63
1155.07
1154.94
1154.93
1155.04
1155.28
1154.78
1154.64
1154.62
1154.72
1154.95
1154.53
1154.38
1154.34
1154.43
1154.67
1154.33
1154.17
1154.12
1154.21
1154.44
1154.2
1154.03
1153.97
1154.06
1154.28
1156.86
1156.75
1156.56
1156.3
1155.96
1155.57
1156.88
1156.78
1156.6
1156.35
1156.04
1155.69
1156.99
1157.19
1156.87
1157.06
1156.67
1156.84
1156.38
1156.5
1156
1156.09
1155.57
1155.66
1155.15
1154.77
1154.47
1154.28
1154.2
1154.23
1155.33
1155
1154.73
1154.54
1154.45
1154.45
1156.61
1156.51
1156.53
1156.66
1156.91
1156.5
1156.41
1156.42
1156.55
1156.8
1156.32
1156.22
1156.23
1156.37
1156.61
1156.05
1155.95
1155.97
1156.1
1156.34
1155.71
1155.61
1155.62
1155.75
1156
1155.31
1155.2
1155.21
1155.34
1155.59
1156.63
1156.54
1156.55
1156.68
1156.93
1156.53
1156.43
1156.45
1156.58
1156.83
1156.35
1156.25
1156.26
1156.4
1156.64
1156.1
1156
1156.01
1156.14
1156.39
1155.79
1155.68
1155.69
1155.82
1156.07
1155.43
1155.32
1155.33
1155.46
1155.71
1156.75
1156.65
1156.67
1156.8
1157.04
1156.95
1156.85
1156.87
1157
1157.24
1156.63
1156.53
1156.55
1156.68
1156.93
1156.82
1156.72
1156.74
1156.87
1157.12
1156.42
1156.32
1156.34
1156.47
1156.72
1156.59
1156.49
1156.51
1156.64
1156.89
1156.13
1156.03
1156.04
1156.17
1156.42
1156.25
1156.15
1156.17
1156.3
1156.55
1155.75
1155.64
1155.66
1155.79
1156.04
1155.84
1155.74
1155.75
1155.88
1156.13
1155.31
1155.2
1155.21
1155.34
1155.59
1155.4
1155.29
1155.3
1155.43
1155.68
1154.89
1154.78
1154.78
1154.9
1155.15
1154.5
1154.38
1154.37
1154.49
1154.74
1154.19
1154.05
1154.04
1154.14
1154.38
1153.97
1153.82
1153.78
1153.88
1154.11
1153.87
1153.7
1153.64
1153.72
1153.95
1153.88
1153.69
1153.62
1153.68
1153.9
1155.07
1154.95
1154.95
1155.08
1155.32
1154.73
1154.6
1154.6
1154.72
1154.96
1154.45
1154.31
1154.3
1154.41
1154.65
1154.25
1154.1
1154.07
1154.17
1154.41
1154.14
1153.98
1153.94
1154.03
1154.26
1154.13
1153.96
1153.91
1153.99
1154.22
1154.2
1154.15
1154.72
1155.15
1155.17
1155.27
1154.89
1153.95
1154.07
1153.99
1154.35
1154.3
1154.24
1154.51
1154.56
1154.72
1153.92
1153.94
1154.24
1154.27
1154.09
1154.14
1154.37
1154.43
1154.81
1154.81
1154.49
1154.49
1154.06
1154.05
1153.91
1154.02
1154.06
1153.94
1154.34
1154.68
1154.27
1153.65
1153.38
1153.26
1153.28
1153.45
1153.74
1153.51
1153.41
1153.45
1153.66
1154.45
1154.33
1154.33
1154.45
1154.7
1154.89
1154.78
1154.78
1154.91
1155.15
1154.91
1154.8
1154.8
1154.92
1155.17
1155.01
1154.9
1154.91
1155.03
1155.28
1154.62
1154.5
1154.5
1154.62
1154.87
1153.46
1153.21
1153.11
1153.15
1153.31
1153.6
1153.36
1153.27
1153.31
1153.49
1153.64
1153.44
1153.36
1153.43
1153.65
1153.93
1153.72
1153.65
1153.71
1153.91
1153.99
1153.84
1153.81
1153.91
1154.14
1153.91
1153.74
1153.69
1153.77
1153.99
1154.22
1154.08
1154.06
1154.16
1154.4
1154.27
1154.12
1154.09
1154.19
1154.43
1154.44
1154.3
1154.28
1154.39
1154.63
1153.44
1153.2
1153.1
1153.14
1153.31
1153.6
1153.42
1153.36
1153.43
1153.66
1153.95
1153.8
1153.77
1153.87
1154.11
1153.98
1153.84
1153.82
1153.93
1154.17
1153.79
1153.63
1153.59
1153.68
1153.92
1153.85
1153.7
1153.67
1153.77
1154
1154.09
1153.96
1153.94
1154.05
1154.29
1154.15
1154.02
1154.01
1154.12
1154.36
1154.54
1154.41
1154.4
1154.52
1154.76
1154.54
1154.42
1154.42
1154.54
1154.78
1154.21
1154.08
1154.06
1154.17
1154.41
1154.21
1154.08
1154.07
1154.18
1154.43
1153.54
1153.28
1153.17
1153.2
1153.37
1153.67
1153.46
1153.38
1153.44
1153.66
1153.5
1153.28
1153.19
1153.24
1153.43
1153.69
1153.51
1153.46
1153.54
1153.76
1153.75
1153.59
1153.55
1153.65
1153.88
1153.6
1153.41
1153.34
1153.41
1153.63
1154.06
1153.92
1153.91
1154.02
1154.26
1154.41
1154.29
1154.28
1154.4
1154.65
1153.98
1153.84
1153.82
1153.92
1154.16
1154.4
1154.16
1154.07
1154.11
1154.27
1154.57
1154.28
1154.3
1153.86
1153.85
1154.32
1154.35
1153.87
1153.89
1154.73
1155.2
1154.74
1155.16
1154.78
1154.76
1155.08
1154.27
1154.29
1153.84
1153.83
1154.31
1154.35
1153.86
1153.89
1154.76
1155.26
1154.76
1155.2
1154.8
1154.77
1155.12
1154.27
1154.3
1153.84
1153.82
1154.32
1154.36
1153.86
1153.89
1154.78
1155.39
1154.78
1155.31
1154.82
1154.79
1155.21
1154.36
1154.38
1153.91
1153.9
1154.41
1154.45
1153.94
1153.97
1154.9
1155.54
1154.9
1155.46
1154.93
1154.89
1155.34
1154.51
1154.53
1154.07
1154.05
1154.56
1154.61
1154.09
1154.12
1155.05
1155.65
1155.05
1155.59
1155.08
1155.04
1155.47
1154.78
1154.8
1154.35
1154.33
1154.82
1154.86
1154.37
1154.39
1155.29
1155.84
1155.28
1155.78
1155.3
1155.27
1155.66
1153.18
1153.18
1153.48
1153.48
1153.18
1153.19
1153.49
1153.5
1152.96
1152.79
1152.97
1152.82
1152.97
1153
1152.87
1153.16
1153.16
1153.46
1153.46
1153.17
1153.18
1153.47
1153.49
1152.93
1152.79
1152.94
1152.82
1152.96
1153
1152.88
1153.15
1153.15
1153.46
1153.45
1153.17
1153.19
1153.47
1153.49
1152.94
1152.85
1152.96
1152.88
1152.99
1153.03
1152.93
1153.22
1153.23
1153.53
1153.52
1153.26
1153.28
1153.55
1153.57
1153.04
1152.99
1153.06
1153.02
1153.1
1153.15
1153.06
1153.38
1153.4
1153.69
1153.68
1153.43
1153.46
1153.71
1153.73
1153.22
1153.2
1153.24
1153.22
1153.28
1153.34
1153.26
1153.68
1153.69
1153.97
1153.96
1153.72
1153.75
1153.99
1154.01
1153.51
1153.46
1153.54
1153.49
1153.57
1153.62
1153.53
1156.77
1156.69
1156.54
1156.42
1156.22
1156.1
1155.77
1155.67
1155.86
1155.74
1156.21
1156.09
1156.47
1156.36
1156.67
1156.59
1156.13
1155.97
1155.91
1155.7
1155.58
1155.38
1155.39
1155.13
1157.05
1157.51
1156.97
1157.4
1156.84
1157.28
1156.71
1157.13
1156.38
1156.63
1156.16
1156.47
1157.01
1156.75
1155.65
1155.26
1155.44
1155.15
1155.16
1154.83
1154.9
1154.66
1156.12
1155.71
1155.89
1155.58
1156.49
1156.1
1158.04
1158.35
1157.82
1158.15
1157.81
1158.21
1157.55
1157.91
1157.49
1158.03
1157.09
1157.59
1156.78
1157.27
1156.43
1156.93
1156.01
1155.94
1155.67
1155.64
1155.29
1155.2
1155.02
1154.93
1156.3
1156.4
1156.7
1156.72
1155.39
1155.39
1155.13
1155.18
1154.78
1154.71
1154.55
1154.51
1155.98
1156.13
1155.69
1155.92
1156.92
1157.51
1157.15
1157.82
1157.35
1157.96
1157.48
1158.18
1156.56
1157.14
1156.87
1157.53
1156.25
1156.82
1156.65
1157.3
1158.79
1159.48
1158.9
1159.59
1158.58
1159.22
1158.79
1159.44
1158.23
1158.72
1158.6
1159.13
1156.49
1155.63
1157.26
1157.85
1158.47
1155.75
1156.66
1157.58
1158.2
1158.88
1155.54
1156.34
1157.12
1157.85
1158.57
1160.12
1160.43
1160.47
1160.75
1159.79
1160.15
1160.25
1160.55
1159.23
1159.63
1159.87
1160.23
1155.95
1156.27
1156.93
1157.38
1157.84
1158.3
1158.57
1159.02
1159.53
1159.98
1155.68
1155.94
1156.58
1157.04
1157.42
1157.95
1158.26
1158.83
1159.32
1159.92
1156.17
1156.68
1155.8
1156.25
1155.28
1155.43
1154.95
1155.03
1156.69
1157.3
1157.05
1157.7
1155.48
1155.94
1155.27
1155.71
1154.68
1154.76
1154.49
1154.55
1156.36
1156.98
1156.15
1156.76
1157.71
1158.45
1158.97
1159.86
1158
1158.78
1159.16
1160.04
1157.44
1158.15
1158.78
1159.66
1157.18
1157.91
1158.51
1159.35
1160.52
1160.65
1160.9
1160.58
1160.63
1160.86
1160.31
1160.47
1160.74
1160.42
1160.49
1160.73
1159.88
1160.1
1160.4
1160.19
1160.29
1160.56
1156.67
1157.12
1157.6
1157.84
1158.24
1158.66
1158.73
1159.07
1159.44
1159.37
1159.65
1160.01
1160
1160.14
1160.47
1156.31
1156.82
1157.36
1157.65
1158.18
1158.72
1158.57
1159.03
1159.52
1159.31
1159.66
1160.08
1159.99
1160.17
1160.55
1154.61
1154.45
1154.47
1154.26
1155.05
1154.85
1154.88
1154.63
1154.52
1154.18
1154.48
1154.17
1154.42
1154.12
1154.35
1154.06
1154.12
1154.26
1154.03
1154.2
1154.06
1153.94
1154.09
1153.9
1154.43
1154.22
1154.03
1153.85
1153.9
1153.73
1153.87
1153.7
1153.84
1153.53
1153.9
1153.61
1153.79
1153.48
1153.8
1153.51
1153.75
1153.41
1153.67
1153.36
1153.61
1153.34
1153.46
1153.23
1154.23
1154.08
1154.04
1153.88
1154.69
1154.56
1154.47
1154.33
1153.74
1153.55
1153.91
1153.73
1153.86
1153.7
1153.67
1153.55
1154.26
1154.13
1154.06
1153.96
1153.58
1153.39
1153.41
1153.25
1153.49
1153.22
1153.33
1153.17
1153.62
1153.33
1153.49
1153.3
1153.36
1153.12
1153.19
1153.06
1153.21
1153.01
1153.07
1152.96
1153.84
1153.99
1153.56
1153.71
1153.84
1153.99
1153.54
1153.7
1153.83
1153.97
1153.51
1153.65
1154.36
1154.91
1154.02
1153.75
1153.46
1155.02
1154.48
1154.16
1153.89
1153.59
1154.81
1154.28
1153.9
1153.64
1153.43
1154.24
1154.59
1153.97
1154.31
1154.22
1154.55
1153.93
1154.25
1154.17
1154.49
1153.85
1154.15
1155.16
1155.43
1154.59
1154.86
1154.26
1154.54
1154.01
1154.3
1153.73
1154.01
1154.9
1155.05
1154.35
1154.51
1153.98
1154.17
1153.75
1153.98
1153.56
1153.85
1154.05
1154.11
1153.84
1153.84
1154.55
1154.58
1154.29
1154.25
1153.55
1153.62
1153.73
1153.85
1153.68
1153.63
1153.52
1153.46
1154.1
1154.01
1153.92
1153.82
1153.4
1153.43
1153.27
1153.28
1153.37
1153.52
1153.28
1153.52
1153.53
1153.73
1153.41
1153.68
1153.23
1153.35
1153.17
1153.38
1153.12
1153.22
1153.07
1153.25
1155.07
1155.54
1155.98
1154.89
1155.43
1155.87
1155
1155.48
1155.93
1154.82
1155.35
1155.82
1154.91
1155.37
1155.84
1154.69
1155.25
1155.75
1155.79
1156.24
1156.73
1155.23
1155.7
1156.2
1154.92
1155.41
1155.92
1154.7
1155.19
1155.68
1154.55
1155.15
1155.69
1155.34
1155.83
1156.38
1154.81
1155.32
1155.87
1154.52
1155.05
1155.63
1154.39
1154.95
1155.53
1154.42
1155.04
1155.63
1153.4
1153.6
1154.13
1155.11
1153.49
1153.7
1154.25
1155.24
1153.36
1153.57
1154.1
1155.09
1153.42
1153.64
1154.2
1155.19
1153.31
1153.53
1154.04
1155
1153.29
1153.53
1154.08
1155.06
1153.3
1153.58
1154.16
1155.17
1153.25
1153.55
1154.16
1155.18
1153.19
1153.45
1153.99
1154.96
1153.21
1153.49
1153.98
1154.85
1153.27
1153.51
1153.99
1154.89
1153.3
1153.55
1154.01
1154.83
1153.12
1153.41
1153.99
1155
1153.13
1153.43
1153.95
1154.85
1153.05
1153.37
1153.96
1154.97
1153.05
1153.38
1153.91
1154.81
1153.41
1153.59
1154.07
1155
1153.54
1153.69
1154.1
1154.91
1153.4
1153.58
1154.06
1154.98
1153.53
1153.69
1154.1
1154.9
1153.39
1153.58
1154.04
1154.93
1153.51
1153.68
1154.09
1154.88
1153.38
1153.59
1154.03
1154.87
1153.48
1153.67
1154.08
1154.85
1153.4
1153.62
1154.04
1154.81
1153.73
1153.85
1154.22
1154.8
1153.95
1154.05
1154.43
1154.97
1153.71
1153.84
1154.21
1154.79
1153.92
1154.04
1154.43
1154.97
1153.66
1153.82
1154.2
1154.78
1153.88
1154.02
1154.41
1154.96
1153.6
1153.78
1154.17
1154.76
1153.82
1153.99
1154.4
1154.94
1153.52
1153.74
1154.14
1154.73
1153.75
1153.96
1154.38
1154.93
1153.36
1153.65
1154.1
1154.71
1153.57
1153.85
1154.31
1154.89
1153.44
1153.69
1154.12
1154.72
1153.66
1153.9
1154.34
1154.91
1153.29
1153.61
1154.08
1154.7
1153.49
1153.8
1154.28
1154.86
1153.23
1153.56
1154.05
1154.68
1153.41
1153.76
1154.25
1154.84
1156.61
1157.81
1158.84
1159.68
1160.33
1156.68
1157.88
1158.9
1159.74
1160.39
1156.6
1157.81
1158.84
1159.68
1160.33
1156.67
1157.87
1158.89
1159.73
1160.38
1156.58
1157.8
1158.83
1159.68
1160.32
1156.61
1157.82
1158.85
1159.69
1160.34
1156.64
1157.85
1158.88
1159.72
1160.37
1156.63
1157.84
1158.87
1159.72
1160.37
1156.57
1157.8
1158.83
1159.67
1160.32
1156.63
1157.88
1158.92
1159.77
1160.41
1156.58
1157.82
1158.85
1159.69
1160.34
1156.65
1157.9
1158.94
1159.78
1160.43
1156.57
1157.8
1158.83
1159.68
1160.32
1156.64
1157.89
1158.94
1159.78
1160.43
1156.55
1157.78
1158.82
1159.67
1160.32
1156.63
1157.9
1158.94
1159.78
1160.43
1156.61
1157.84
1158.87
1159.71
1160.36
1156.7
1157.95
1158.98
1159.82
1160.46
1156.61
1157.84
1158.88
1159.72
1160.36
1156.7
1157.95
1158.98
1159.82
1160.47
1156.61
1157.85
1158.89
1159.73
1160.37
1156.7
1157.95
1158.99
1159.83
1160.47
1156.64
1157.89
1158.93
1159.77
1160.42
1156.72
1157.97
1159.01
1159.85
1160.49
1156.69
1157.95
1158.99
1159.83
1160.47
1161.94
1162.13
1161.84
1162.05
1161.68
1161.91
1161.48
1161.74
1161.27
1161.58
1160.95
1161.3
1161.11
1161.46
1160.79
1161.13
1160.62
1160.93
1164.12
1166.51
1168.51
1170.08
1171.14
1164.08
1166.49
1168.52
1170.09
1171.18
1164.07
1166.48
1168.5
1170.07
1171.14
1164.04
1166.47
1168.5
1170.09
1171.17
1163.99
1166.44
1168.47
1170.04
1171.12
1163.97
1166.43
1168.48
1170.07
1171.15
1163.89
1166.37
1168.43
1170.01
1171.09
1163.87
1166.37
1168.44
1170.04
1171.13
1163.76
1166.29
1168.37
1169.97
1171.05
1163.76
1166.3
1168.39
1170
1171.1
1163.49
1166.09
1168.22
1169.85
1170.95
1163.51
1166.12
1168.25