/*--------------------------------*- C++ -*----------------------------------*\
  =========                 |
  \\      /  F ield         | OpenFOAM: The Open Source CFD Toolbox
   \\    /   O peration     | Website:  https://openfoam.org
    \\  /    A nd           | Version:  12
     \\/     M anipulation  |
\*---------------------------------------------------------------------------*/
FoamFile
{
    format      ascii;
    class       volScalarField;
    location    "340";
    object      T;
}
// * * * * * * * * * * * * * * * * * * * * * * * * * * * * * * * * * * * * * //

dimensions      [];

internalField   nonuniform List<scalar> 
4480
(
8.76944e-08
7.672e-06
0.00285655
0.036887
0.117314
0.218249
0.318315
0.407745
0.483779
0.546844
0.598539
0.640698
0.67502
0.702956
0.725688
0.744166
0.759142
0.771217
0.780859
0.788443
0.794272
0.798583
0.801567
0.803377
0.804137
0.803949
0.802896
0.801374
0.799834
0.798265
0.796663
0.795018
0.79332
0.791562
0.789735
0.787831
0.785839
0.783751
0.781555
0.779243
0.776806
0.774227
0.771496
0.768603
0.765533
0.76227
0.7588
0.755114
0.751188
0.747005
0.742554
0.73782
0.732773
0.727403
0.721688
0.715605
0.709142
0.702276
0.694982
0.687244
0.679036
0.67034
0.661132
0.651393
0.641093
0.630218
0.618731
0.606618
0.593833
0.580359
0.566144
0.551153
0.535331
0.518624
0.50097
0.482306
0.462572
0.441721
0.419726
0.396597
0.372388
0.347211
0.321237
0.294831
0.26832
0.242048
0.216382
0.191687
0.168303
0.146523
0.126574
0.108612
0.0927111
0.0788715
0.067027
0.0570572
0.0488039
0.0420858
0.0367135
0.0325019
0.0292798
0.0268971
0.0252289
0.0241789
0.023678
0.0236864
0.0241924
0.0252127
0.026793
0.0290112
0.0319799
0.0358523
0.0408281
0.0471617
0.0551675
0.0652285
0.0777937
0.0933764
0.112548
0.135997
0.164818
0.201095
0.248318
0.314254
0.427453
0.61139
0.757567
0.883158
0.860727
0.677445
0.526536
0.347283
0.220175
0.140278
0.08512
0.0474691
0.0231572
0.00898133
0.00227826
0.000204956
4.11545e-08
0.000356602
0.0268334
0.145776
0.308664
0.459266
0.579338
0.669528
0.735866
0.784565
0.82059
0.847569
0.86806
0.883831
0.896101
0.905738
0.913345
0.919357
0.924093
0.927793
0.930635
0.93275
0.934244
0.935195
0.935669
0.93571
0.935359
0.934484
0.933012
0.931001
0.928505
0.925581
0.922282
0.918655
0.914743
0.910591
0.906236
0.901709
0.897036
0.892242
0.887349
0.882371
0.877315
0.872196
0.867018
0.861779
0.856484
0.851127
0.845702
0.840205
0.834626
0.82896
0.823191
0.817307
0.811301
0.805154
0.798861
0.792402
0.785766
0.778943
0.771912
0.76467
0.757195
0.749481
0.741514
0.733287
0.724779
0.715981
0.706887
0.697484
0.687754
0.677688
0.667269
0.656486
0.645312
0.633738
0.621739
0.609289
0.596376
0.582966
0.569033
0.554562
0.539518
0.523913
0.507759
0.491046
0.473789
0.456018
0.437772
0.419124
0.400161
0.380996
0.361766
0.342631
0.323765
0.305356
0.287602
0.270697
0.254832
0.240189
0.22693
0.215198
0.205121
0.196802
0.19034
0.185814
0.183311
0.182919
0.184744
0.188914
0.195586
0.204952
0.21724
0.232715
0.251665
0.274402
0.30124
0.332495
0.36849
0.409625
0.456509
0.510091
0.571495
0.641704
0.720588
0.802007
0.872622
0.922797
0.897462
0.77579
0.650772
0.522929
0.401687
0.293322
0.200535
0.125294
0.0686693
0.0306147
0.00949035
0.00133114
9.86704e-06
0.00449049
0.101572
0.3088
0.506431
0.652114
0.750112
0.814424
0.856936
0.885731
0.905883
0.920501
0.931449
0.939872
0.946476
0.951723
0.955918
0.959277
0.961958
0.964077
0.965728
0.966976
0.96788
0.968485
0.968822
0.96892
0.968798
0.968419
0.967737
0.966761
0.965498
0.963947
0.962113
0.959993
0.957599
0.954933
0.952008
0.948835
0.945429
0.941802
0.937974
0.933959
0.929775
0.925437
0.920958
0.916357
0.91164
0.906822
0.901908
0.896909
0.891831
0.886676
0.881445
0.876141
0.870767
0.865316
0.859792
0.854188
0.848502
0.842731
0.83687
0.830917
0.824863
0.818709
0.812448
0.806073
0.799585
0.792975
0.786239
0.779378
0.772376
0.765241
0.757962
0.750536
0.742951
0.735213
0.727313
0.719239
0.710991
0.702567
0.693949
0.685143
0.676131
0.666914
0.657489
0.64786
0.638022
0.627968
0.617697
0.60722
0.596541
0.585678
0.574657
0.563507
0.55228
0.541034
0.529845
0.518804
0.508025
0.497638
0.487788
0.478642
0.470389
0.463221
0.457353
0.453003
0.450395
0.449758
0.451321
0.455299
0.461901
0.471318
0.483719
0.499237
0.517966
0.539945
0.565165
0.59355
0.62497
0.659253
0.696176
0.735413
0.776372
0.81796
0.858389
0.894949
0.924114
0.941605
0.922742
0.842747
0.752189
0.651697
0.543078
0.430237
0.318868
0.215879
0.128486
0.0628079
0.0219831
0.00377315
0.000223001
0.0255494
0.234045
0.489973
0.67372
0.785369
0.850515
0.889145
0.913158
0.929098
0.940447
0.949035
0.955817
0.961299
0.965778
0.969443
0.972439
0.974868
0.976823
0.978375
0.979588
0.980512
0.981189
0.981658
0.981941
0.982059
0.98203
0.981843
0.981481
0.980951
0.980252
0.97938
0.978332
0.9771
0.975678
0.974061
0.972247
0.970226
0.968003
0.965576
0.962951
0.960131
0.957122
0.953936
0.95058
0.947068
0.943407
0.939611
0.935689
0.931656
0.92752
0.923288
0.918973
0.914581
0.91012
0.905596
0.901015
0.896378
0.891694
0.88696
0.882186
0.877365
0.872505
0.867607
0.862666
0.857686
0.852669
0.847609
0.842512
0.837369
0.832183
0.826957
0.821683
0.816364
0.810995
0.805575
0.800105
0.794587
0.789013
0.783381
0.777696
0.771959
0.766171
0.76031
0.754397
0.748434
0.742424
0.736375
0.730292
0.724181
0.718056
0.711933
0.705831
0.69977
0.693785
0.687902
0.682172
0.676637
0.671358
0.666408
0.661867
0.657822
0.654382
0.65166
0.64979
0.648901
0.649146
0.650669
0.653623
0.65815
0.664386
0.67244
0.682403
0.694326
0.708217
0.724036
0.741696
0.76105
0.781893
0.803962
0.82692
0.850316
0.873544
0.89578
0.915957
0.932733
0.944393
0.948565
0.935143
0.882202
0.81751
0.740999
0.650577
0.546038
0.43036
0.310418
0.196998
0.102755
0.0385112
0.00721118
0.00199128
0.0853731
0.402337
0.653929
0.794131
0.866098
0.903881
0.925294
0.938825
0.948475
0.956059
0.962358
0.96768
0.972162
0.975895
0.97896
0.981448
0.983439
0.985009
0.986229
0.987161
0.987857
0.988359
0.988702
0.988915
0.989015
0.989018
0.988918
0.988701
0.988369
0.987924
0.987364
0.986689
0.985892
0.984971
0.983918
0.982725
0.981389
0.979901
0.97826
0.976459
0.974501
0.97238
0.970103
0.967669
0.965086
0.962359
0.959494
0.956501
0.953388
0.950165
0.946841
0.943426
0.93993
0.936362
0.932733
0.929048
0.925313
0.921542
0.917735
0.913901
0.910043
0.906171
0.902286
0.898386
0.894484
0.890575
0.886662
0.882749
0.878835
0.874922
0.871006
0.867095
0.863182
0.859271
0.855359
0.85145
0.847537
0.843621
0.83971
0.835796
0.831882
0.827975
0.824055
0.820139
0.816229
0.812328
0.808441
0.804582
0.800757
0.796978
0.793257
0.789616
0.78607
0.782642
0.779359
0.776255
0.773364
0.770725
0.768388
0.766397
0.764813
0.763701
0.763128
0.763165
0.763894
0.765391
0.767737
0.771011
0.77529
0.780629
0.787087
0.794688
0.803445
0.813337
0.824308
0.836274
0.849106
0.862635
0.876635
0.890828
0.904863
0.918285
0.93053
0.940892
0.948504
0.952218
0.950402
0.939375
0.903641
0.855804
0.797948
0.726164
0.636552
0.52732
0.401328
0.269001
0.147747
0.0578338
0.0111923
0.0099604
0.197449
0.574338
0.778322
0.868619
0.90947
0.930164
0.942479
0.951212
0.958371
0.964703
0.970333
0.975211
0.979315
0.982669
0.98535
0.987448
0.989055
0.990263
0.991147
0.991777
0.992213
0.992504
0.992686
0.992786
0.992828
0.992821
0.992768
0.992633
0.992422
0.992134
0.991767
0.991321
0.99079
0.990171
0.989458
0.988647
0.987731
0.986706
0.985567
0.984308
0.982924
0.981414
0.979776
0.978011
0.976116
0.974097
0.971955
0.969699
0.967331
0.964858
0.96229
0.959635
0.9569
0.954093
0.951226
0.948308
0.945343
0.94234
0.93931
0.936262
0.933195
0.930122
0.927045
0.923969
0.920901
0.917841
0.914795
0.911768
0.908754
0.90576
0.902785
0.899833
0.896904
0.893993
0.891106
0.888237
0.885394
0.882573
0.87977
0.87699
0.874237
0.871508
0.868796
0.8661
0.86343
0.86079
0.858184
0.855617
0.853098
0.850639
0.848248
0.845938
0.843724
0.841626
0.839662
0.837856
0.836236
0.834824
0.833655
0.832766
0.832191
0.831975
0.832161
0.83279
0.833915
0.835577
0.837829
0.840708
0.844252
0.848496
0.853453
0.859133
0.865524
0.8726
0.8803
0.888553
0.897244
0.906236
0.915344
0.924344
0.932953
0.940827
0.947539
0.952571
0.95527
0.954783
0.949931
0.939026
0.914557
0.877174
0.832078
0.775549
0.701942
0.6053
0.482413
0.339441
0.195016
0.0788806
0.015459
0.0335666
0.35241
0.720315
0.857982
0.908777
0.930926
0.942993
0.951271
0.958157
0.964574
0.970676
0.9762
0.980904
0.984724
0.987716
0.989992
0.991665
0.992847
0.993637
0.994128
0.994399
0.994518
0.99454
0.994511
0.994459
0.994406
0.99436
0.994327
0.994253
0.994139
0.993983
0.993778
0.99352
0.993205
0.992828
0.99238
0.991858
0.991257
0.990569
0.989793
0.988922
0.987952
0.986881
0.985706
0.984428
0.983041
0.981549
0.979953
0.978258
0.976463
0.974577
0.972606
0.970554
0.968427
0.966237
0.96399
0.96169
0.959351
0.95698
0.95458
0.952163
0.949733
0.947299
0.944863
0.942437
0.940021
0.937617
0.935234
0.932871
0.930534
0.92822
0.925936
0.923676
0.921449
0.919251
0.917081
0.91494
0.912829
0.910749
0.908702
0.90668
0.904692
0.90274
0.900804
0.898898
0.897022
0.895178
0.893371
0.891605
0.889888
0.888223
0.886622
0.885097
0.883651
0.882305
0.881067
0.879961
0.878999
0.878202
0.877596
0.877201
0.877048
0.877161
0.877569
0.878303
0.879392
0.880866
0.882752
0.885072
0.887851
0.891096
0.894816
0.899006
0.903648
0.908707
0.91413
0.91985
0.925773
0.931776
0.937706
0.943375
0.948552
0.952957
0.956254
0.958025
0.957754
0.954785
0.948236
0.936949
0.918627
0.888723
0.851771
0.806017
0.745954
0.663562
0.549783
0.403987
0.241836
0.100702
0.0199249
0.0858617
0.521519
0.822218
0.901169
0.928513
0.941576
0.949854
0.956513
0.962814
0.969198
0.975456
0.981001
0.985515
0.988987
0.991549
0.993357
0.99455
0.995248
0.99556
0.995589
0.995427
0.995157
0.99485
0.994552
0.994301
0.994118
0.994012
0.993979
0.993956
0.993935
0.993907
0.993864
0.993797
0.993697
0.993554
0.993359
0.993104
0.992786
0.992397
0.99193
0.991384
0.990753
0.990034
0.989226
0.988326
0.987337
0.986256
0.985083
0.983822
0.982478
0.981051
0.979546
0.977971
0.97633
0.974627
0.972873
0.971073
0.969234
0.967364
0.965471
0.963562
0.961638
0.959713
0.957788
0.955867
0.95396
0.952067
0.950195
0.948342
0.946514
0.944714
0.942943
0.941197
0.939486
0.937801
0.936148
0.934528
0.932937
0.93138
0.929852
0.928353
0.926892
0.92546
0.924058
0.922676
0.921326
0.920005
0.918716
0.917467
0.916262
0.915099
0.913992
0.912948
0.911968
0.911065
0.910254
0.909542
0.908945
0.908474
0.908149
0.907982
0.907998
0.908206
0.908635
0.909302
0.910222
0.91142
0.912904
0.914696
0.916799
0.919224
0.921962
0.925003
0.92833
0.931906
0.935683
0.939596
0.943562
0.947473
0.951202
0.954581
0.957423
0.959488
0.960499
0.960109
0.9579
0.953346
0.945782
0.934371
0.918112
0.89457
0.86282
0.824084
0.773891
0.704283
0.602162
0.459631
0.28583
0.122493
0.0245945
0.181351
0.670001
0.878898
0.921874
0.938372
0.947477
0.954105
0.960119
0.966351
0.972997
0.97954
0.985078
0.989298
0.99233
0.994398
0.995695
0.996358
0.996508
0.996262
0.995737
0.995049
0.994302
0.993578
0.992944
0.992442
0.992095
0.991908
0.991869
0.991894
0.991973
0.992089
0.992227
0.992371
0.992508
0.992621
0.992697
0.992727
0.992699
0.992606
0.992444
0.992205
0.991889
0.991489
0.991005
0.990437
0.989783
0.989044
0.988223
0.987321
0.986341
0.985287
0.98416
0.982969
0.981718
0.980409
0.979054
0.977653
0.976218
0.974752
0.973263
0.971758
0.970242
0.968718
0.967197
0.965681
0.964173
0.96268
0.961203
0.959745
0.958312
0.956903
0.955518
0.954162
0.952829
0.951529
0.950257
0.949013
0.9478
0.946614
0.945458
0.944329
0.943233
0.942165
0.941128
0.940107
0.939112
0.938146
0.937208
0.936303
0.935429
0.934598
0.933804
0.933065
0.932376
0.93175
0.931192
0.930713
0.930316
0.930021
0.929831
0.929765
0.929827
0.930036
0.930403
0.930942
0.931663
0.932582
0.933702
0.935033
0.936576
0.938336
0.940297
0.94245
0.944771
0.947226
0.949768
0.952344
0.95487
0.957255
0.959383
0.961113
0.96228
0.962678
0.962067
0.960162
0.956613
0.950994
0.942781
0.931339
0.915917
0.895677
0.868657
0.834437
0.790802
0.731107
0.640442
0.504924
0.325234
0.143629
0.029515
0.323608
0.775549
0.902812
0.932001
0.943997
0.951231
0.957037
0.962817
0.969206
0.976259
0.983127
0.988552
0.992358
0.994878
0.996426
0.997183
0.997266
0.996781
0.995864
0.99466
0.993315
0.991968
0.990727
0.989675
0.988863
0.988315
0.988033
0.987981
0.988065
0.988264
0.988554
0.988911
0.989308
0.989723
0.990134
0.990523
0.990872
0.991168
0.991401
0.991563
0.991649
0.991651
0.991568
0.991398
0.991144
0.990806
0.99038
0.989873
0.989285
0.988623
0.987884
0.987078
0.986209
0.98528
0.984299
0.983273
0.9822
0.981096
0.97996
0.978799
0.977623
0.976434
0.975237
0.974038
0.972843
0.971654
0.970476
0.969313
0.968164
0.967036
0.965925
0.96484
0.963777
0.96274
0.961725
0.960736
0.959773
0.958834
0.957923
0.957034
0.956173
0.955338
0.954527
0.953744
0.952975
0.95223
0.951507
0.950806
0.950129
0.949484
0.948867
0.948284
0.947739
0.947238
0.946782
0.946379
0.946032
0.945752
0.945545
0.945415
0.945376
0.945432
0.945592
0.94587
0.946267
0.946793
0.947454
0.948253
0.949196
0.950279
0.951496
0.952837
0.954288
0.955824
0.957411
0.959006
0.960554
0.961984
0.963213
0.964134
0.964627
0.96454
0.963697
0.96189
0.958878
0.954358
0.947987
0.939332
0.927887
0.913037
0.894069
0.870175
0.839957
0.800539
0.747786
0.666771
0.539786
0.359009
0.163684
0.0347541
0.459482
0.838167
0.918063
0.938066
0.94762
0.953817
0.959165
0.964898
0.971563
0.979107
0.986294
0.991478
0.994766
0.996748
0.997774
0.997967
0.997389
0.996146
0.994396
0.992338
0.990168
0.988068
0.986183
0.98462
0.983434
0.982654
0.982271
0.982211
0.982377
0.982734
0.983247
0.983878
0.984589
0.985346
0.986117
0.986878
0.987602
0.988273
0.98888
0.989405
0.989846
0.990197
0.990452
0.990612
0.990676
0.990648
0.990528
0.99032
0.990027
0.989655
0.989206
0.988686
0.988103
0.987457
0.986757
0.986007
0.985215
0.984388
0.983526
0.982642
0.981737
0.980816
0.979887
0.978952
0.978017
0.977085
0.976161
0.975243
0.974342
0.973452
0.972582
0.971728
0.970893
0.970079
0.969282
0.968511
0.967758
0.967027
0.966317
0.965625
0.964957
0.964313
0.963686
0.963083
0.962497
0.961924
0.961368
0.960832
0.960319
0.959823
0.959354
0.958908
0.95849
0.958106
0.957753
0.957443
0.957174
0.956952
0.956781
0.95667
0.956622
0.956642
0.956733
0.956908
0.957161
0.957506
0.957937
0.958459
0.959072
0.95977
0.960544
0.961384
0.962267
0.963175
0.964072
0.964915
0.965656
0.966225
0.966547
0.966531
0.966062
0.965007
0.96321
0.960491
0.956636
0.951392
0.944463
0.935488
0.924037
0.90958
0.891477
0.868956
0.840982
0.805623
0.757417
0.683705
0.565105
0.386787
0.182418
0.0403917
0.588259
0.874159
0.927903
0.942865
0.950292
0.955639
0.960717
0.9665
0.973509
0.981592
0.989088
0.993889
0.996592
0.998055
0.998579
0.998159
0.996794
0.994601
0.991797
0.988656
0.985452
0.982423
0.979756
0.97758
0.975962
0.974926
0.974451
0.974402
0.974688
0.975261
0.976066
0.97705
0.978158
0.97934
0.980555
0.981766
0.982942
0.984059
0.985096
0.986041
0.986883
0.98762
0.988247
0.988759
0.989164
0.98946
0.989652
0.989744
0.989742
0.989651
0.989477
0.989225
0.988902
0.988514
0.988067
0.987567
0.98702
0.986433
0.985812
0.98516
0.984486
0.983794
0.983087
0.982371
0.981653
0.980932
0.980213
0.979499
0.978793
0.978098
0.977415
0.976745
0.976089
0.975448
0.974824
0.974216
0.973626
0.97305
0.972491
0.971949
0.971426
0.97092
0.970428
0.969956
0.969494
0.969048
0.96861
0.968189
0.967784
0.967391
0.967017
0.966662
0.966327
0.966013
0.965726
0.965466
0.965235
0.965038
0.964877
0.964754
0.964674
0.964641
0.964658
0.964725
0.964845
0.965019
0.965246
0.965527
0.965858
0.966229
0.96663
0.967051
0.967471
0.967862
0.968193
0.968428
0.968515
0.968395
0.967992
0.967223
0.965986
0.964161
0.961608
0.958171
0.953661
0.947854
0.940497
0.931276
0.919806
0.905614
0.888108
0.866547
0.839905
0.806319
0.761266
0.693591
0.582276
0.408748
0.199742
0.0465186
0.695018
0.896277
0.934613
0.946292
0.952467
0.957036
0.961821
0.967698
0.975078
0.983734
0.991525
0.995815
0.997912
0.998916
0.998953
0.997827
0.995476
0.99207
0.98793
0.983435
0.978955
0.974801
0.971205
0.968321
0.966223
0.964927
0.964391
0.964387
0.964855
0.965724
0.966917
0.968355
0.969965
0.971679
0.973438
0.975195
0.976911
0.97855
0.980092
0.98152
0.982823
0.983992
0.985028
0.985929
0.986698
0.987339
0.98786
0.988263
0.988556
0.988748
0.988844
0.988855
0.988781
0.988636
0.988424
0.988153
0.98783
0.987458
0.987051
0.986605
0.986133
0.985637
0.985123
0.984596
0.984057
0.983515
0.982967
0.982421
0.981878
0.981341
0.980809
0.980288
0.979775
0.979271
0.978781
0.978301
0.977833
0.977378
0.976936
0.976508
0.97609
0.975683
0.975293
0.974913
0.974543
0.974182
0.973831
0.973487
0.973156
0.972832
0.972521
0.972224
0.971938
0.971665
0.971413
0.971177
0.970957
0.970763
0.970589
0.970438
0.970316
0.970222
0.970153
0.970118
0.97011
0.97013
0.970173
0.970242
0.970323
0.970413
0.970499
0.970565
0.970589
0.970551
0.970415
0.970142
0.969686
0.968994
0.967994
0.966609
0.964743
0.962295
0.959133
0.955117
0.950083
0.943829
0.93613
0.926704
0.915202
0.901185
0.884092
0.863207
0.837522
0.805222
0.762023
0.697511
0.591591
0.424138
0.215374
0.0532351
0.7545
0.917155
0.939356
0.948746
0.954006
0.958209
0.962614
0.968532
0.97629
0.985541
0.99363
0.997296
0.998811
0.999446
0.998983
0.996989
0.993378
0.988424
0.982608
0.976451
0.970437
0.964954
0.960291
0.956621
0.954018
0.952482
0.951943
0.952045
0.952782
0.954053
0.955751
0.957768
0.960004
0.96237
0.964789
0.9672
0.969548
0.971798
0.973924
0.975901
0.977721
0.979377
0.980866
0.982192
0.983357
0.984369
0.985235
0.985964
0.986563
0.987043
0.987413
0.987681
0.987855
0.987945
0.987959
0.987903
0.987789
0.98762
0.987404
0.987147
0.986854
0.986534
0.986189
0.985825
0.985444
0.985054
0.984654
0.98425
0.983842
0.983436
0.983031
0.982628
0.982229
0.981839
0.981455
0.981074
0.980706
0.980341
0.979989
0.97964
0.979305
0.978974
0.978654
0.978342
0.978039
0.977738
0.977443
0.977155
0.976869
0.976591
0.976317
0.976052
0.975794
0.975544
0.975302
0.97507
0.974847
0.974635
0.974438
0.974251
0.974075
0.973914
0.973763
0.973624
0.973493
0.973369
0.973247
0.973121
0.972986
0.972829
0.972638
0.972395
0.972083
0.971675
0.971138
0.970437
0.969528
0.968353
0.966852
0.96495
0.962564
0.959595
0.95593
0.951443
0.945978
0.939358
0.93138
0.921781
0.910235
0.896324
0.879515
0.859107
0.834113
0.802747
0.760882
0.698613
0.596572
0.433883
0.226227
0.0584053
0.793667
0.92453
0.942782
0.950462
0.955019
0.958939
0.963325
0.969023
0.977147
0.987007
0.995413
0.998377
0.999384
0.999745
0.998726
0.995622
0.990388
0.98349
0.975615
0.967465
0.959649
0.952647
0.946792
0.942276
0.939171
0.937449
0.937
0.937303
0.938431
0.940244
0.942596
0.945339
0.948342
0.951494
0.954696
0.957869
0.960952
0.963902
0.966684
0.969276
0.97167
0.973859
0.975843
0.977627
0.979217
0.980622
0.981855
0.982921
0.983837
0.984613
0.985259
0.985787
0.986207
0.98653
0.986763
0.986917
0.987001
0.987021
0.986987
0.986904
0.986777
0.986615
0.986422
0.986203
0.985962
0.985703
0.985431
0.985147
0.984857
0.984558
0.984257
0.983956
0.983653
0.983351
0.983051
0.982754
0.982458
0.982167
0.981879
0.981596
0.981317
0.981046
0.980777
0.980513
0.980253
0.979994
0.979735
0.979481
0.979224
0.978972
0.978719
0.978468
0.97822
0.977976
0.977731
0.97749
0.977251
0.977013
0.97678
0.976545
0.976313
0.976082
0.975845
0.975605
0.975359
0.9751
0.974824
0.974523
0.97419
0.973811
0.973374
0.972864
0.972256
0.971525
0.97064
0.969569
0.968266
0.96668
0.964752
0.962413
0.959587
0.956182
0.952098
0.947214
0.94139
0.934472
0.926259
0.916505
0.904904
0.891051
0.87443
0.854361
0.829868
0.799184
0.758279
0.697589
0.598331
0.439342
0.23327
0.0620905
0.821828
0.930114
0.945529
0.951574
0.955543
0.959246
0.963682
0.969431
0.97765
0.988119
0.996888
0.999118
0.999717
0.999897
0.998203
0.993658
0.986364
0.977072
0.966735
0.956256
0.946381
0.937678
0.930528
0.925142
0.921577
0.919765
0.919307
0.919959
0.921666
0.924227
0.927438
0.931107
0.935064
0.939163
0.943287
0.947343
0.951261
0.954993
0.958503
0.96177
0.964786
0.967548
0.97006
0.972328
0.974364
0.976181
0.977791
0.979211
0.98045
0.981526
0.982454
0.983242
0.983906
0.984457
0.984905
0.985262
0.985537
0.985738
0.985875
0.985954
0.985981
0.985965
0.985911
0.985822
0.985706
0.985567
0.985406
0.985228
0.985038
0.984835
0.984623
0.984403
0.984179
0.98395
0.983718
0.983485
0.98325
0.983013
0.982778
0.982543
0.982306
0.982072
0.981839
0.981609
0.981378
0.981143
0.980909
0.98067
0.980431
0.980188
0.979943
0.979695
0.979443
0.97919
0.978932
0.978671
0.978403
0.978132
0.977855
0.977569
0.977276
0.976968
0.976649
0.976312
0.975949
0.975563
0.975142
0.974681
0.974167
0.973588
0.97293
0.972178
0.971306
0.970289
0.969105
0.967708
0.966062
0.964118
0.961821
0.959106
0.955904
0.952129
0.947689
0.942473
0.936353
0.929178
0.920765
0.910875
0.899209
0.885379
0.868877
0.849044
0.824915
0.794728
0.754507
0.694918
0.597635
0.441515
0.237268
0.0644864
0.842762
0.934107
0.947097
0.952169
0.955622
0.959118
0.963634
0.969727
0.977861
0.98887
0.998074
0.999584
0.999889
0.999965
0.997406
0.991008
0.981151
0.968981
0.955769
0.942633
0.930457
0.919893
0.911374
0.905126
0.901187
0.899434
0.89907
0.900262
0.902757
0.906281
0.910562
0.915353
0.920436
0.925636
0.930811
0.935856
0.940697
0.945277
0.949567
0.953554
0.957224
0.960584
0.963642
0.96641
0.968902
0.971137
0.973132
0.974904
0.97647
0.977847
0.97905
0.980099
0.981004
0.981779
0.982438
0.982993
0.983449
0.983824
0.984122
0.984353
0.984527
0.984644
0.984717
0.984751
0.984747
0.984713
0.984652
0.984567
0.984464
0.984341
0.984206
0.984056
0.983897
0.983727
0.983552
0.983368
0.983179
0.982985
0.982788
0.982587
0.982382
0.982175
0.981965
0.981752
0.981536
0.981317
0.981091
0.980861
0.980625
0.980381
0.980131
0.979873
0.97961
0.979338
0.979058
0.978768
0.978466
0.978154
0.977827
0.977486
0.977125
0.976744
0.976338
0.975903
0.975434
0.974923
0.974367
0.973752
0.973072
0.97231
0.971451
0.970479
0.96937
0.968102
0.966643
0.96496
0.963013
0.960756
0.958139
0.955102
0.951576
0.947484
0.942741
0.937243
0.930868
0.923477
0.914891
0.904874
0.893139
0.879303
0.862876
0.843207
0.81934
0.789514
0.749776
0.69093
0.595031
0.441138
0.238845
0.0658025
0.858595
0.936917
0.947923
0.952281
0.955245
0.95854
0.96314
0.969596
0.978054
0.989244
0.998978
0.999842
0.999967
0.999991
0.996308
0.987561
0.974591
0.959048
0.942562
0.926468
0.911773
0.899206
0.889261
0.882192
0.878015
0.876528
0.876603
0.878587
0.882135
0.88687
0.892445
0.898549
0.904915
0.911337
0.917656
0.923762
0.929572
0.93504
0.940134
0.944848
0.949181
0.953141
0.956744
0.960007
0.962952
0.965601
0.967972
0.97009
0.971974
0.973647
0.975122
0.97642
0.977557
0.978549
0.979408
0.980148
0.980784
0.98132
0.981773
0.982146
0.982454
0.982697
0.982887
0.983029
0.983129
0.983189
0.983216
0.983213
0.983185
0.983133
0.983062
0.98297
0.982866
0.982744
0.982612
0.982469
0.982315
0.982152
0.981981
0.981802
0.981619
0.981425
0.981227
0.981026
0.980816
0.980601
0.980374
0.980141
0.979897
0.979644
0.979379
0.979105
0.978818
0.978522
0.978211
0.977885
0.977544
0.977184
0.976804
0.976399
0.975971
0.975514
0.975021
0.974491
0.973917
0.973289
0.972601
0.971846
0.971007
0.970073
0.969031
0.967859
0.966536
0.965036
0.963335
0.961396
0.959183
0.956654
0.953756
0.950435
0.946629
0.942266
0.937265
0.931524
0.924936
0.917361
0.908619
0.898488
0.886682
0.872825
0.856435
0.836878
0.813201
0.783637
0.744226
0.685865
0.590903
0.438756
0.238506
0.0662381
0.870664
0.938836
0.948198
0.951878
0.954414
0.957482
0.962164
0.969023
0.978142
0.989315
0.999604
0.999959
0.999993
0.999998
0.99487
0.983209
0.966541
0.947144
0.927024
0.907709
0.890299
0.875593
0.86417
0.856352
0.852144
0.850972
0.851828
0.855023
0.860046
0.866381
0.873567
0.881219
0.889034
0.896786
0.904312
0.911503
0.918289
0.924631
0.93051
0.935928
0.940895
0.945427
0.949546
0.953279
0.956648
0.959688
0.962416
0.96486
0.967042
0.968989
0.970721
0.972258
0.973613
0.97481
0.975858
0.976774
0.977572
0.978264
0.978856
0.979364
0.979791
0.98015
0.980446
0.980687
0.980876
0.981022
0.981125
0.981193
0.981231
0.981238
0.981219
0.981177
0.981117
0.981035
0.980935
0.980822
0.980694
0.980551
0.980397
0.980233
0.980059
0.979874
0.979678
0.979474
0.979261
0.979041
0.978805
0.978559
0.9783
0.97803
0.977745
0.977445
0.977132
0.976801
0.976453
0.976086
0.975697
0.975285
0.974847
0.97438
0.973881
0.973345
0.972767
0.972143
0.971462
0.97072
0.96991
0.969017
0.968033
0.966939
0.965726
0.964369
0.96285
0.961144
0.959225
0.957055
0.954606
0.951833
0.948689
0.945123
0.941076
0.936479
0.931256
0.925315
0.918545
0.910806
0.901933
0.891697
0.879819
0.865923
0.849553
0.830075
0.806538
0.777161
0.737966
0.679889
0.585539
0.434784
0.236655
0.065969
0.879855
0.940014
0.947938
0.950892
0.953112
0.955916
0.96066
0.967949
0.977786
0.989378
0.999945
0.999997
1
1
0.993046
0.977846
0.95689
0.933196
0.909142
0.886397
0.866096
0.849096
0.836117
0.827652
0.823713
0.822362
0.824597
0.829693
0.836854
0.845342
0.854555
0.864033
0.873457
0.882609
0.89135
0.899598
0.907302
0.914453
0.921044
0.927096
0.932629
0.937671
0.942249
0.946397
0.950145
0.953529
0.956574
0.959311
0.961764
0.963959
0.96592
0.967668
0.969222
0.970602
0.971822
0.972898
0.973843
0.974671
0.975393
0.976019
0.976558
0.977018
0.977408
0.977736
0.978005
0.978221
0.978392
0.978523
0.978613
0.978668
0.978695
0.978691
0.978663
0.97861
0.978534
0.978441
0.978329
0.9782
0.978053
0.977895
0.977721
0.977533
0.977333
0.977123
0.976898
0.976662
0.976411
0.976145
0.975863
0.975567
0.975252
0.974921
0.974573
0.974203
0.973813
0.973398
0.972959
0.97249
0.971992
0.971458
0.970886
0.970271
0.969606
0.968886
0.968103
0.967252
0.966321
0.965301
0.964176
0.962936
0.961561
0.960036
0.958338
0.956443
0.954325
0.951953
0.949295
0.946306
0.942945
0.939169
0.934913
0.930117
0.924706
0.918595
0.911668
0.903794
0.894804
0.884469
0.872517
0.858585
0.842216
0.822789
0.799363
0.770128
0.731067
0.673128
0.579149
0.429533
0.23361
0.0651441
0.886753
0.940603
0.947267
0.949525
0.951318
0.953795
0.958575
0.966322
0.976977
0.989437
1
0.999999
0.999998
0.999999
0.990792
0.971381
0.945558
0.917201
0.889011
0.862705
0.839358
0.819841
0.805117
0.796114
0.792873
0.792689
0.796944
0.804538
0.814327
0.825315
0.836754
0.848137
0.859155
0.869627
0.879469
0.888632
0.897119
0.904936
0.912109
0.918671
0.924657
0.930106
0.935053
0.939537
0.943593
0.94726
0.950565
0.95354
0.956218
0.958624
0.960777
0.962706
0.964429
0.965966
0.96733
0.968544
0.969617
0.970564
0.971398
0.972126
0.972759
0.973305
0.973777
0.974178
0.974512
0.974792
0.975016
0.975195
0.975329
0.975422
0.97548
0.975503
0.975499
0.975465
0.975406
0.975322
0.975215
0.975091
0.974944
0.974781
0.974599
0.974404
0.97419
0.973962
0.973719
0.973462
0.973185
0.972892
0.972581
0.972253
0.971905
0.971534
0.971145
0.970731
0.970292
0.969826
0.96933
0.968804
0.968241
0.967636
0.966991
0.966293
0.965542
0.964731
0.963848
0.962889
0.961844
0.960697
0.959443
0.958062
0.956539
0.954858
0.952994
0.950929
0.948632
0.946078
0.943231
0.940056
0.936511
0.932549
0.928117
0.923154
0.917585
0.911328
0.904272
0.896279
0.887185
0.876765
0.864743
0.850769
0.834393
0.815014
0.791679
0.762556
0.723574
0.665669
0.571883
0.423243
0.229621
0.0638869
0.891772
0.940705
0.946229
0.947741
0.949003
0.951083
0.955849
0.964077
0.975661
0.989234
1
1
0.999998
0.999997
0.988078
0.963731
0.932511
0.899244
0.866864
0.836994
0.810475
0.788079
0.771136
0.76167
0.75781
0.760313
0.768626
0.780486
0.794029
0.808026
0.821774
0.834915
0.847265
0.858765
0.869411
0.879222
0.888235
0.896499
0.904055
0.910952
0.917239
0.922956
0.928151
0.932862
0.937135
0.941
0.944491
0.947646
0.950489
0.95305
0.955352
0.95742
0.959274
0.960934
0.962418
0.963737
0.964912
0.965954
0.966875
0.967684
0.968393
0.96901
0.969543
0.970001
0.970391
0.970716
0.970981
0.971193
0.97136
0.971479
0.97156
0.971601
0.971607
0.971581
0.971527
0.971445
0.971335
0.971204
0.971049
0.970874
0.970677
0.970461
0.970227
0.969974
0.969705
0.96942
0.969111
0.968785
0.968439
0.968069
0.967681
0.967267
0.96683
0.966366
0.965875
0.965351
0.964798
0.964206
0.963573
0.962899
0.962175
0.961398
0.960558
0.959653
0.958672
0.95761
0.956451
0.955188
0.953809
0.952295
0.950636
0.948808
0.946795
0.944575
0.942121
0.939404
0.936393
0.933056
0.929352
0.925235
0.920652
0.915552
0.909854
0.903476
0.896308
0.888216
0.87903
0.868528
0.856442
0.84243
0.826055
0.806722
0.783472
0.754446
0.715507
0.657564
0.563856
0.41609
0.224878
0.0622956
0.895177
0.940389
0.944833
0.945411
0.945897
0.947736
0.952424
0.961141
0.97377
0.988718
0.999997
0.999997
0.999998
0.999996
0.984872
0.954819
0.917751
0.879527
0.84314
0.809938
0.780234
0.75442
0.734082
0.723756
0.720323
0.728835
0.744302
0.76207
0.77968
0.796268
0.811649
0.825834
0.838876
0.850848
0.861824
0.871877
0.881076
0.889489
0.897175
0.904186
0.91058
0.916407
0.921705
0.926518
0.930888
0.934857
0.93845
0.941701
0.944641
0.947295
0.94969
0.951847
0.953787
0.955529
0.957091
0.958487
0.959733
0.960839
0.961822
0.962689
0.96345
0.964114
0.964693
0.96519
0.96561
0.965966
0.966258
0.966491
0.966674
0.966805
0.966893
0.96694
0.966947
0.966919
0.966859
0.966768
0.966645
0.966497
0.966325
0.966127
0.965908
0.965663
0.9654
0.965116
0.964813
0.96449
0.964142
0.963775
0.963386
0.962972
0.962533
0.962071
0.96158
0.961062
0.960513
0.95993
0.95931
0.958651
0.957949
0.957198
0.956396
0.955534
0.954609
0.953612
0.952533
0.951368
0.950102
0.948725
0.947227
0.945592
0.943804
0.941844
0.939696
0.937336
0.934739
0.931881
0.928729
0.925253
0.921411
0.917168
0.912466
0.907248
0.901444
0.894966
0.887706
0.879527
0.870256
0.859685
0.847545
0.833504
0.817141
0.797867
0.774716
0.745783
0.706876
0.648849
0.555144
0.408201
0.219527
0.060446
0.897117
0.93973
0.943158
0.942632
0.942074
0.943733
0.948234
0.957424
0.971213
0.987875
1
1
0.999998
1
0.981142
0.944564
0.901341
0.858417
0.818606
0.782774
0.750312
0.720677
0.694384
0.674055
0.682391
0.710661
0.736368
0.756363
0.774792
0.791847
0.80767
0.821738
0.834582
0.846315
0.857051
0.866882
0.875881
0.884116
0.891651
0.898538
0.904835
0.91058
0.915825
0.920597
0.924945
0.928899
0.932495
0.935758
0.938716
0.941398
0.943817
0.946006
0.94798
0.949758
0.951355
0.952786
0.954064
0.955206
0.956218
0.957114
0.957902
0.95859
0.959187
0.959699
0.960137
0.9605
0.9608
0.961038
0.96122
0.96135
0.961433