/*--------------------------------*- C++ -*----------------------------------*\
  =========                 |
  \\      /  F ield         | OpenFOAM: The Open Source CFD Toolbox
   \\    /   O peration     | Website:  https://openfoam.org
    \\  /    A nd           | Version:  13
     \\/     M anipulation  |
\*---------------------------------------------------------------------------*/
FoamFile
{
    format      ascii;
    class       volScalarField;
    location    "499.831886";
    object      T;
}
// * * * * * * * * * * * * * * * * * * * * * * * * * * * * * * * * * * * * * //

dimensions      [0 0 0 1 0 0 0];

internalField   nonuniform List<scalar> 
5712
(
319.741
319.773
319.828
319.878
319.959
320.011
320.142
320.184
320.106
320.154
319.962
320.011
319.858
319.904
319.779
319.815
320
320.065
320.087
320.178
320.222
320.306
320.303
320.41
319.625
319.436
319.66
319.483
319.708
319.526
319.762
319.591
319.896
319.795
319.988
319.861
319.638
319.745
320.197
320.358
320.285
320.405
320.399
320.535
320.504
320.607
320.005
320.173
320.102
320.229
319.853
320.016
319.219
319.091
319.31
319.176
319.31
319.149
319.417
319.268
319.444
319.225
319.607
319.404
319.734
319.533
319.879
319.675
320.049
320.078
320.188
320.202
320.343
320.38
320.454
320.491
319.932
319.894
319.768
319.762
320.307
320.306
320.414
320.393
320.555
320.586
320.65
320.666
320.066
320.004
320.186
320.094
319.68
319.436
319.589
319.314
319.504
319.253
319.45
319.165
319.827
319.589
319.703
319.434
319.956
319.722
319.793
319.528
318.913
318.631
318.866
318.587
318.997
318.735
318.912
318.646
319.141
318.939
318.991
318.772
319.851
320.198
319.536
319.298
319.042
320.149
319.782
319.406
319.152
318.876
320.24
319.913
319.596
319.297
319.004
318.371
318.243
318.23
318.116
318.502
318.355
318.318
318.195
318.731
318.565
318.471
318.324
320.067
319.932
319.666
319.483
319.296
319.107
319.002
318.815
318.614
318.427
320.179
320.069
319.813
319.622
319.469
319.253
319.128
318.895
318.7
318.456
319.984
319.771
320.138
319.949
320.344
320.28
320.482
320.445
319.774
319.524
319.624
319.358
320.269
320.08
320.354
320.174
320.593
320.559
320.674
320.648
319.911
319.656
319.997
319.748
319.361
319.059
318.85
318.486
319.239
318.922
318.769
318.411
319.472
319.181
318.928
318.57
319.578
319.283
319.039
318.7
318.202
318.145
318.041
318.176
318.152
318.057
318.286
318.216
318.105
318.24
318.21
318.107
318.46
318.367
318.242
318.336
318.291
318.176
319.767
319.578
319.378
319.288
319.123
318.947
318.927
318.785
318.63
318.667
318.548
318.4
318.413
318.351
318.215
319.916
319.704
319.477
319.369
319.148
318.924
318.995
318.801
318.601
318.695
318.548
318.372
318.418
318.337
318.18
320.617
320.685
320.678
320.766
320.439
320.523
320.508
320.612
320.652
320.792
320.669
320.799
320.693
320.818
320.723
320.839
320.819
320.761
320.856
320.788
320.843
320.892
320.835
320.915
320.696
320.785
320.859
320.935
320.912
320.985
320.92
320.995
320.933
321.058
320.91
321.027
320.951
321.08
320.946
321.064
320.968
321.108
321.002
321.129
321.027
321.139
321.091
321.183
320.775
320.834
320.854
320.921
320.588
320.639
320.68
320.736
320.976
321.055
320.907
320.979
320.931
320.995
321.008
321.061
320.768
320.819
320.852
320.893
321.044
321.121
321.114
321.179
321.078
321.188
321.143
321.209
321.022
321.14
321.077
321.153
321.133
321.231
321.201
321.257
321.195
321.276
321.252
321.298
320.927
320.865
321.044
320.98
320.929
320.864
321.053
320.986
320.932
320.873
321.067
321.007
320.716
320.494
320.856
320.966
321.084
320.448
320.668
320.798
320.907
321.032
320.536
320.753
320.908
321.013
321.098
320.759
320.613
320.872
320.731
320.767
320.628
320.889
320.753
320.789
320.657
320.922
320.795
320.388
320.276
320.621
320.506
320.754
320.637
320.856
320.736
320.974
320.854
320.499
320.432
320.72
320.653
320.871
320.791
320.968
320.87
321.043
320.921
320.847
320.822
320.935
320.934
320.645
320.626
320.75
320.763
321.053
321.022
320.977
320.926
321.003
321.021
321.068
321.093
320.833
320.863
320.906
320.944
321.114
321.1
321.173
321.164
321.126
321.063
321.16
321.061
321.057
320.976
321.106
320.994
321.183
321.135
321.207
321.12
321.231
321.189
321.249
321.173
320.415
320.219
320.035
320.487
320.265
320.08
320.442
320.243
320.055
320.519
320.295
320.102
320.482
320.287
320.095
320.571
320.337
320.131
320.125
319.936
319.733
320.351
320.156
319.948
320.478
320.274
320.062
320.569
320.364
320.159
320.629
320.382
320.157
320.311
320.106
319.876
320.525
320.316
320.084
320.645
320.423
320.183
320.698
320.464
320.222
320.685
320.426
320.178
321.11
321.025
320.803
320.394
321.073
320.982
320.752
320.34
321.126
321.038
320.815
320.402
321.102
321.006
320.773
320.36
321.147
321.054
320.84
320.439
321.157
321.052
320.823
320.414
321.15
321.034
320.789
320.37
321.174
321.044
320.789
320.367
321.197
321.086
320.862
320.457
321.19
321.071
320.866
320.501
321.162
321.062
320.86
320.483
321.15
321.043
320.853
320.509
321.226
321.104
320.862
320.441
321.225
321.095
320.878
320.504
321.256
321.122
320.872
320.453
321.255
321.116
320.892
320.519
321.103
321.028
320.825
320.441
321.05
320.987
320.814
320.478
321.107
321.03
320.83
320.448
321.053
320.986
320.815
320.482
321.114
321.032
320.838
320.467
321.064
320.99
320.818
320.489
321.116
321.027
320.843
320.494
321.074
320.993
320.823
320.503
321.111
321.015
320.839
320.519
320.97
320.917
320.761
320.521
320.879
320.833
320.674
320.449
320.98
320.922
320.766
320.526
320.89
320.838
320.677
320.451
320.998
320.932
320.772
320.53
320.908
320.847
320.682
320.455
321.025
320.947
320.783
320.54
320.933
320.86
320.69
320.461
321.059
320.966
320.796
320.55
320.962
320.874
320.698
320.466
321.125
321.003
320.814
320.559
321.037
320.918
320.725
320.485
321.092
320.984
320.804
320.554
321
320.896
320.711
320.476
321.154
321.021
320.823
320.563
321.072
320.939
320.738
320.495
321.182
321.039
320.835
320.573
321.104
320.959
320.751
320.505
319.773
319.273
318.848
318.502
318.237
319.742
319.248
318.824
318.478
318.213
319.777
319.275
318.849
318.503
318.237
319.747
319.251
318.826
318.481
318.215
319.784
319.278
318.851
318.505
318.239
319.77
319.271
318.844
318.498
318.232
319.758
319.258
318.831
318.484
318.218
319.765
319.263
318.835
318.487
318.221
319.789
319.281
318.853
318.506
318.24
319.763
319.244
318.814
318.468
318.202
319.783
319.272
318.844
318.497
318.231
319.755
319.236
318.807
318.46
318.195
319.789
319.281
318.852
318.505
318.238
319.76
319.24
318.81
318.463
318.197
319.797
319.286
318.855
318.507
318.241
319.762
319.239
318.808
318.46
318.194
319.77
319.261
318.835
318.489
318.224
319.732
319.217
318.791
318.446
318.181
319.77
319.261
318.834
318.488
318.223
319.733
319.217
318.79
318.445
318.18
319.77
319.257
318.829
318.483
318.218
319.733
319.215
318.788
318.442
318.177
319.759
319.241
318.812
318.466
318.201
319.727
319.207
318.779
318.434
318.169
319.737
319.217
318.789
318.443
318.178
317.639
317.559
317.676
317.594
317.742
317.651
317.827
317.72
317.913
317.788
318.048
317.904
317.979
317.839
318.115
317.977
318.185
318.06
316.764
315.81
315.01
314.391
313.969
316.778
315.817
315.009
314.385
313.957
316.781
315.818
315.016
314.395
313.973
316.793
315.823
315.014
314.387
313.959
316.814
315.837
315.028
314.403
313.98
316.825
315.841
315.026
314.395
313.967
316.859
315.864
315.046
314.417
313.992
316.866
315.866
315.042
314.407
313.977
316.911
315.897
315.069
314.434
314.007
316.911
315.894
315.062
314.422
313.99
317.025
315.981
315.131
314.484
314.05
317.013
315.969
315.117
314.467
314.03
316.968
315.938
315.099
314.457
314.027
316.959
315.929
315.086
314.442
314.007
317.082
316.025
315.165
314.511
314.075
317.074
316.016
315.154
314.497
314.057
317.14
316.07
315.201
314.54
314.101
317.14
316.066
315.194
314.53
314.086
320.823
320.696
320.585
320.73
320.539
320.559
320.565
320.592
320.523
320.56
320.353
320.397
320.264
320.313
320.391
320.432
320.441
320.469
320.45
320.472
320.72
320.751
320.361
320.207
320.16
320.145
320.285
320.362
320.185
320.39
320.033
319.804
320.348
320.284
320.107
320.299
320.221
320.206
320.508
320.518
320.419
320.453
320.499
320.535
320.492
320.435
320.237
320.274
320.348
320.385
320.657
320.704
320.62
320.657
320.598
320.586
320.479
320.345
320.482
320.951
321.069
321.119
321.112
321.047
320.923
321.021
321.064
321.047
320.962
320.476
320.53
320.535
320.489
320.388
320.318
320.367
320.367
320.318
320.216
320.272
320.322
320.325
320.278
320.177
320.255
320.303
320.304
320.254
320.153
320.398
320.451
320.454
320.407
320.307
320.614
320.767
320.847
320.863
320.816
320.453
320.618
320.703
320.719
320.665
320.569
320.684
320.744
320.74
320.663
320.28
320.437
320.515
320.524
320.457
320.045
320.206
320.285
320.294
320.227
320.489
320.571
320.604
320.578
320.49
320.448
320.552
320.603
320.592
320.51
320.266
320.365
320.413
320.399
320.317
320.431
320.503
320.527
320.495
320.403
320.361
320.442
320.473
320.447
320.358
320.335
320.405
320.426
320.393
320.301
320.739
320.869
320.934
320.94
320.884
320.676
320.773
320.818
320.803
320.719
320.554
320.629
320.655
320.624
320.533
320.581
320.65
320.669
320.634
320.54
320.637
320.716
320.745
320.718
320.627
320.666
320.737
320.759
320.725
320.631
320.614
320.675
320.687
320.646
320.548
320.556
320.616
320.628
320.587
320.489
320.357
320.416
320.427
320.386
320.289
320.39
320.445
320.452
320.408
320.309
320.474
320.54
320.557
320.52
320.426
320.506
320.568
320.581
320.541
320.444
320.881
321.003
321.057
321.054
320.993
320.865
320.958
320.997
320.977
320.891
320.805
320.913
320.966
320.959
320.888
320.8
320.881
320.912
320.885
320.795
320.733
320.808
320.833
320.801
320.709
320.741
320.834
320.876
320.858
320.774
320.602
320.664
320.678
320.638
320.541
320.462
320.517
320.525
320.481
320.382
320.609
320.675
320.692
320.656
320.56
320.746
320.676
320.741
320.662
320.915
320.833
320.918
320.845
320.734
320.725
320.659
320.674
320.912
320.908
320.837
320.859
320.568
320.394
320.505
320.338
320.568
320.41
320.493
320.339
320.49
320.556
320.527
320.571
320.434
320.367
320.566
320.487
320.601
320.514
320.738
320.655
320.787
320.706
320.4
320.315
320.451
320.354
320.274
320.171
320.235
320.097
320.186
320.055
320.246
320.082
320.183
320.038
320.275
320.052
320.231
320.033
320.145
319.943
320.027
319.821
320.67
320.625
320.634
320.583
320.892
320.877
320.853
320.84
320.424
320.296
320.456
320.34
320.576
320.532
320.502
320.468
320.797
320.793
320.729
320.736
320.365
320.242
320.284
320.173
320.205
319.959
319.998
319.72
320.227
319.961
320.036
319.743
320.149
319.913
319.946
319.676
320.063
319.83
319.874
319.609
320.224
320.144
320.07
319.943
320.237
320.171
320.047
319.926
320.26
320.225
320.007
319.906
320.68
320.908
320.455
320.215
319.911
320.916
320.698
320.475
320.222
319.859
320.896
320.65
320.367
320.059
319.741
320.013
319.954
319.609
319.49
320.074
320.015
319.633
319.514
320.166
320.117
319.662
319.543
320.912
320.88
320.68
320.641
320.437
320.398
320.146
320.095
319.624
319.496
320.896
320.862
320.625
320.545
320.317
320.216
319.962
319.84
319.484
319.329
320.561
320.422
320.523
320.381
320.869
320.855
320.836
320.831
320.176
319.973
320.222
320.03
320.49
320.327
320.427
320.253
320.797
320.783
320.741
320.72
320.143
319.915
320.073
319.831
319.762
319.5
319.237
318.906
319.832
319.578
319.333
319.023
319.708
319.437
319.156
318.815
319.658
319.368
319.111
318.776
319.931
319.88
319.567
319.56
319.99
319.933
319.583
319.58
320.078
319.995
319.598
319.591
320.812
320.693
320.568
320.456
320.335
320.238
320.044
319.953
319.569
319.569
320.795
320.666
320.435
320.318
320.12
320.032
319.802
319.762
319.474
319.498
321.194
321.199
321.12
321.151
321.069
321.073
320.992
321.024
321.282
321.345
321.213
321.278
321.28
321.338
321.205
321.267
321.217
321.281
321.226
321.274
321.325
321.264
321.083
321.001
320.956
320.876
321.127
321.034
321.155
321.073
321.177
321.092
321.383
321.406
321.317
321.345
321.382
321.411
321.313
321.349
321.377
321.417
321.325
321.374
321.247
321.304
321.171
321.243
321.22
321.225
321.186
321.2
321.078
321.08
321.041
321.05
321.283
321.302
321.314
321.322
321.135
321.164
321.075
321.118
320.988
321.007
320.924
320.956
321.235
321.271
321.178
321.23
321.351
321.398
321.36
321.385
321.38
321.417
321.376
321.396
321.306
321.364
321.333
321.364
321.253
321.321
321.297
321.335
321.411
321.4
321.43
321.412
321.405
321.393
321.429
321.409
321.392
321.382
321.425
321.407
321.234
321.094
321.325
321.386
321.415
321.093
321.227
321.316
321.376
321.402
321.096
321.235
321.328
321.38
321.395
321.354
321.273
321.356
321.269
321.354
321.278
321.36
321.277
321.352
321.285
321.366
321.289
321.092
321.061
321.226
321.187
321.308
321.258
321.358
321.301
321.371
321.301
321.104
321.092
321.24
321.222
321.325
321.292
321.367
321.315
321.368
321.299
321.244
321.249
321.215
321.234
321.102
321.119
321.067
321.102
321.303
321.293
321.326
321.306
321.17
321.2
321.124
321.151
321.019
321.064
320.967
321.01
321.264
321.262
321.223
321.217
321.345
321.305
321.341
321.272
321.363
321.314
321.358
321.285
321.316
321.28
321.316
321.246
321.277
321.238
321.285
321.214
321.173
321.081
321.142
321.033
321.186
321.086
321.152
321.036
321.197
321.087
321.166
321.032
320.994
320.873
321.113
320.989
321.18
321.055
321.214
321.086
321.177
321.019
321.037
320.898
321.157
321.012
321.211
321.058
321.214
321.055
321.161
320.982
321.352
321.188
320.914
320.469
321.295
321.132
320.855
320.41
321.355
321.193
320.919
320.471
321.301
321.14
320.865
320.422
321.358
321.197
320.937
320.503
321.324
321.166
320.902
320.467
321.262
321.11
320.842
320.406
321.215
321.072
320.808
320.38
321.342
321.185
320.931
320.505
321.314
321.155
320.926
320.545
321.351
321.19
320.949
320.544
321.32
321.158
320.933
320.565
321.319
321.167
320.907
320.473
321.301
321.147
320.916
320.533
321.288
321.144
320.888
320.464
321.281
321.134
320.905
320.53
321.37
321.207
320.947
320.523
321.344
321.182
320.947
320.57
321.367
321.204
320.948
320.527
321.339
321.176
320.944
320.57
321.358
321.195
320.949
320.54
321.332
321.169
320.939
320.571
321.341
321.178
320.946
320.562
321.322
321.159
320.935
320.578
321.316
321.153
320.934
320.584
321.284
321.122
320.901
320.626
321.204
321.042
320.817
320.561
321.284
321.122
320.901
320.628
321.204
321.042
320.817
320.56
321.283
321.12
320.899
320.625
321.202
321.039
320.814
320.559
321.281
321.117
320.898
320.626
321.2
321.035
320.811
320.556
321.276
321.111
320.896
320.626
321.196
321.029
320.806
320.552
321.251
321.089
320.875
320.608
321.178
321.013
320.792
320.539
321.266
321.101
320.886
320.617
321.19
321.023
320.801
320.548
321.231
321.073
320.861
320.594
321.158
320.997
320.779
320.528
321.208
321.057
320.848
320.584
321.132
320.978
320.765
320.516
319.818
319.3
318.865
318.514
318.246
319.784
319.274
318.84
318.49
318.222
319.817
319.3
318.865
318.514
318.246
319.785
319.274
318.841
318.491
318.223
319.82
319.3
318.865
318.514
318.246
319.801
319.29
318.856
318.506
318.239
319.779
319.271
318.839
318.49
318.223
319.773
319.268
318.838
318.49
318.223
319.816
319.298
318.863
318.513
318.245
319.787
319.259
318.824
318.474
318.207
319.815
319.292
318.856
318.505
318.238
319.784
319.253
318.818
318.468
318.201
319.808
319.292
318.859
318.509
318.242
319.777
319.25
318.816
318.467
318.2
319.803
319.29
318.858
318.509
318.242
319.768
319.243
318.81
318.462
318.195
319.816
319.29
318.853
318.501
318.233
319.78
319.246
318.808
318.458
318.19
319.814
319.287
318.85
318.499
318.231
319.779
319.244
318.807
318.457
318.189
319.809
319.281
318.844
318.493
318.225
319.775
319.24
318.803
318.453
318.185
319.794
319.262
318.826
318.475
318.208
319.764
319.229
318.793
318.443
318.176
319.769
319.237
318.801
318.451
318.184
318.757
318.664
318.744
318.649
318.714
318.617
318.667
318.572
318.591
318.509
318.397
318.289
318.484
318.391
318.321
318.203
318.253
318.133
317.576
316.388
315.439
314.73
314.264
317.603
316.402
315.441
314.727
314.253
317.565
316.379
315.433
314.725
314.261
317.587
316.39
315.435
314.719
314.248
317.54
316.363
315.422
314.716
314.253
317.564
316.374
315.424
314.71
314.241
317.503
316.337
315.403
314.702
314.241
317.529
316.351
315.407
314.698
314.23
317.45
316.301
315.377
314.682
314.223
317.485
316.321
315.386
314.681
314.215
317.321
316.212
315.311
314.63
314.178
317.344
316.226
315.317
314.628
314.171
317.386
316.259
315.347
314.657
314.202
317.421
316.28
315.356
314.658
314.196
317.259
316.165
315.275
314.601
314.153
317.272
316.172
315.276
314.596
314.144
317.198
316.116
315.237
314.57
314.127
317.205
316.117
315.235
314.563
314.115
320.927
320.807
320.895
321.021
321.192
321.121
321.193
321.112
321.068
320.984
321.068
320.996
319.639
319.661
319.717
319.804
319.923
320.066
319.631
319.652
319.704
319.787
319.895
320.022
319.583
319.5
319.608
319.529
319.67
319.599
319.77
319.713
319.903
319.86
320.059
320.012
320.219
320.365
320.491
320.595
320.673
320.73
320.159
320.291
320.41
320.511
320.589
320.643
319.741
319.781
319.774
319.72
319.618
319.763
319.804
319.797
319.743
319.641
319.819
319.86
319.854
319.8
319.698
319.908
319.95
319.945
319.891
319.789
320.028
320.072
320.067
320.015
319.912
320.173
320.219
320.217
320.165
320.063
319.733
319.773
319.766
319.712
319.61
319.754
319.795
319.788
319.734
319.632
319.807
319.848
319.842
319.788
319.686
319.891
319.933
319.928
319.874
319.772
320
320.044
320.04
319.988
319.886
320.13
320.176
320.174
320.123
320.021
319.685
319.725
319.718
319.663
319.562
319.601
319.641
319.634
319.58
319.478
319.71
319.75
319.744
319.689
319.587
319.63
319.67
319.663
319.609
319.508
319.773
319.814
319.807
319.753
319.651
319.701
319.742
319.735
319.681
319.58
319.873
319.915
319.91
319.856
319.754
319.817
319.859
319.853
319.8
319.698
320.009
320.052
320.048
319.995
319.893
319.966
320.009
320.005
319.953
319.851
320.166
320.212
320.21
320.158
320.056
320.12
320.166
320.164
320.113
320.011
320.33
320.379
320.38
320.33
320.229
320.48
320.534
320.539
320.493
320.393
320.612
320.672
320.683
320.641
320.543
320.724
320.792
320.811
320.775
320.68
320.812
320.888
320.914
320.883
320.791
320.875
320.956
320.986
320.958
320.866
320.269
320.318
320.319
320.269
320.168
320.405
320.458
320.462
320.416
320.316
320.529
320.587
320.596
320.553
320.454
320.635
320.698
320.712
320.673
320.576
320.718
320.786
320.805
320.769
320.673
320.776
320.847
320.868
320.833
320.738
319.651
319.696
319.774
319.885
320.027
320.194
319.642
319.686
319.761
319.866
319.996
320.144
319.595
319.513
319.644
319.566
319.73
319.662
319.854
319.803
320.013
319.975
320.196
320.159
320.37
320.531
320.658
320.743
320.777
320.767
320.296
320.436
320.551
320.631
320.67
320.672
319.753
319.793
319.786
319.731
319.629
319.798
319.838
319.831
319.777
319.674
319.877
319.918
319.911
319.856
319.754
319.989
320.03
320.024
319.97
319.867
320.132
320.175
320.17
320.116
320.013
320.301
320.346
320.342
320.289
320.185
319.744
319.784
319.778
319.723
319.621
319.788
319.829
319.822
319.767
319.665
319.864
319.905
319.899
319.844
319.742
319.97
320.012
320.006
319.951
319.849
320.101
320.144
320.139
320.086
319.983
320.251
320.296
320.292
320.239
320.136
319.697
319.737
319.73
319.675
319.573
319.614
319.654
319.647
319.592
319.491
319.746
319.786
319.779
319.725
319.622
319.668
319.708
319.701
319.646
319.545
319.833
319.873
319.867
319.812
319.71
319.764
319.804
319.798
319.743
319.641
319.958
319.999
319.993
319.939
319.836
319.906
319.947
319.941
319.887
319.784
320.118
320.16
320.155
320.101
319.998
320.08
320.123
320.118
320.064
319.961
320.302
320.347
320.343
320.289
320.186
320.266
320.31
320.306
320.253
320.15
320.48
320.527
320.525
320.473
320.37
320.644
320.695
320.697
320.647
320.545
320.777
320.833
320.84
320.795
320.694
320.869
320.933
320.948
320.907
320.809
320.913
320.986
321.008
320.974
320.879
320.912
320.991
321.019
320.99
320.898
320.406
320.453
320.452
320.4
320.298
320.549
320.6
320.602
320.553
320.451
320.669
320.724
320.73
320.684
320.583
320.753
320.814
320.825
320.783
320.684
320.798
320.865
320.881
320.842
320.746
320.804
320.874
320.894
320.859
320.764
320.785
320.802
320.551
320.371
320.362
320.319
320.484
320.894
320.843
320.87
320.724
320.738
320.765
320.648
320.627
320.558
320.904
320.888
320.758
320.744
320.823
320.8
320.7
320.677
320.517
320.515
320.652
320.652
320.847
320.844
320.904
320.852
320.834
320.89
320.713
320.569
320.746
321.012
321.125
321.17
321.16
321.091
320.971
321.067
321.107
321.087
321.001
320.664
320.714
320.715
320.665
320.562
320.48
320.527
320.525
320.472
320.369
320.472
320.52
320.518
320.467
320.364
320.428
320.474
320.472
320.419
320.316
320.595
320.643
320.643
320.592
320.489
321.094
321.196
321.237
321.221
321.151
321.038
321.135
321.171
321.151
321.075
321.018
321.099
321.129
321.1
321.008
320.898
320.985
321.013
320.986
320.899
320.863
320.926
320.939
320.898
320.799
320.901
320.972
320.993
320.958
320.862
320.768
320.826
320.835
320.79
320.69
320.749
320.81
320.82
320.778
320.679
320.676
320.732
320.739
320.693
320.593
321.101
321.201
321.239
321.223
321.151
321.029
321.105
321.13
321.097
321.003
320.881
320.942
320.953
320.911
320.811
320.865
320.923
320.932
320.887
320.787
320.95
321.015
321.03
320.99
320.892
320.924
320.985
320.997
320.955
320.856
320.818
320.874
320.88
320.834
320.733
320.793
320.847
320.852
320.804
320.703
320.631
320.683
320.686
320.638
320.536
320.628
320.678
320.679
320.629
320.526
320.77
320.825
320.832
320.785
320.684
320.768
320.822
320.826
320.779
320.677
321.06
321.165
321.208
321.194
321.123
320.999
321.085
321.118
321.092
321.002
321.073
321.163
321.199
321.178
321.097
320.989
321.063
321.085
321.051
320.956
320.962
321.028
321.044
321.005
320.907
321.032
321.109
321.135
321.105
321.011
320.832
320.888
320.894
320.848
320.747
320.683
320.733
320.735
320.686
320.583
320.867
320.925
320.933
320.888
320.788
320.693
320.791
320.83
320.816
320.751
320.624
320.77
320.761
320.942
320.945
320.753
320.738
320.936
320.927
320.584
320.391
320.583
320.409
320.565
320.574
320.441
320.775
320.766
320.949
320.953
320.756
320.741
320.941
320.93
320.574
320.37
320.573
320.393
320.556
320.571
320.427
320.773
320.763
320.95
320.956
320.752
320.736
320.941
320.929
320.565
320.318
320.564
320.348
320.547
320.562
320.39
320.737
320.728
320.919
320.926
320.716
320.698
320.909
320.895
320.517
320.256
320.518
320.288
320.503
320.52
320.337
320.674
320.665
320.855
320.862
320.654
320.632
320.846
320.832
320.453
320.209
320.455
320.234
320.443
320.456
320.282
320.561
320.553
320.738
320.745
320.544
320.525
320.73
320.717
320.352
320.127
320.356
320.151
320.346
320.36
320.2
321.219
321.22
321.096
321.096
321.217
321.214
321.092
321.087
321.308
321.376
321.304
321.365
321.302
321.29
321.344
321.228
321.227
321.103
321.106
321.222
321.216
321.098
321.092
321.321
321.376
321.314
321.363
321.307
321.291
321.341
321.232
321.229
321.106
321.11
321.22
321.212
321.099
321.09
321.315
321.351
321.306
321.339
321.295
321.278
321.319
321.2
321.196
321.075
321.08
321.186
321.174
321.066
321.057
321.275
321.293
321.265
321.282
321.25
321.23
321.262
321.133
321.128
321.01
321.015
321.115
321.1
321.001
320.991
321.2
321.207
321.189
321.199
321.172
321.15
321.183
321.01
321.005
320.89
320.895
320.992
320.979
320.881
320.871
321.076
321.095
321.065
321.086
321.051
321.033
321.07
319.735
319.766
319.827
319.877
319.958
320.01
320.141
320.183
320.105
320.154
319.961
320.011
319.857
319.903
319.772
319.806
319.999
320.065
320.087
320.178
320.221
320.306
320.302
320.409
319.621
319.433
319.654
319.479
319.707
319.526
319.762
319.591
319.895
319.794
319.988
319.86
319.637
319.745
320.196
320.357
320.284
320.405
320.399
320.535
320.504
320.607
320.005
320.173
320.102
320.229
319.853
320.016
319.216
319.088
319.305
319.172
319.31
319.148
319.416
319.268
319.443
319.224
319.607
319.404
319.734
319.533
319.879
319.675
320.048
320.077
320.188
320.202
320.343
320.38
320.454
320.491
319.931
319.894
319.768
319.761
320.306
320.306
320.414
320.393
320.555
320.585
320.65
320.666
320.066
320.004
320.186
320.094
319.68
319.435
319.588
319.314
319.503
319.253
319.45
319.165
319.826
319.588
319.703
319.433
319.956
319.721
319.793
319.528
318.909
318.627
318.864
318.584
318.997
318.735
318.912
318.645
319.14
318.939
318.991
318.771
319.851
320.198
319.536
319.298
319.042
320.148
319.781
319.406
319.152
318.876
320.239
319.912
319.596
319.297
319.004
318.367
318.239
318.227
318.114
318.502
318.355
318.318
318.195
318.731
318.565
318.47
318.324
320.067
319.932
319.666
319.483
319.296
319.107
319.002
318.815
318.614
318.427
320.179
320.069
319.812
319.622
319.469
319.253
319.128
318.895
318.7
318.455
319.984
319.771
320.138
319.949
320.344
320.28
320.482
320.445
319.774
319.524
319.623
319.358
320.269
320.08
320.354
320.173
320.593
320.559
320.674
320.648
319.911
319.656
319.997
319.748
319.36
319.059
318.85
318.486
319.239
318.922
318.769
318.411
319.472
319.18
318.928
318.57
319.578
319.283
319.039
318.7
318.198
318.142
318.038
318.174
318.15
318.055
318.286
318.216
318.105
318.239
318.21
318.107
318.46
318.367
318.242
318.336
318.291
318.175
319.767
319.578
319.378
319.288
319.123
318.947
318.926
318.785
318.63
318.667
318.548
318.4
318.413
318.351
318.215
319.916
319.704
319.477
319.368
319.148
318.924
318.995
318.8
318.601
318.695
318.548
318.372
318.418
318.337
318.18
320.617
320.685
320.678
320.765
320.438
320.522
320.508
320.612
320.65
320.79
320.666
320.796
320.693
320.817
320.723
320.839
320.819
320.761
320.856
320.787
320.843
320.892
320.834
320.915
320.696
320.785
320.859
320.935
320.912
320.985
320.92
320.995
320.931
321.056
320.907
321.024
320.951
321.08
320.946
321.064
320.968
321.108
321.001
321.129
321.027
321.139
321.09
321.183
320.775
320.834
320.854
320.92
320.587
320.639
320.68
320.736
320.976
321.055
320.906
320.979
320.931
320.995
321.008
321.061
320.767
320.819
320.852
320.893
321.044
321.121
321.114
321.179
321.078
321.188
321.143
321.209
321.022
321.14
321.077
321.153
321.133
321.23
321.201
321.257
321.195
321.276
321.252
321.298
320.926
320.865
321.043
320.98
320.929
320.864
321.053
320.986
320.932
320.873
321.067
321.007
320.716
320.494
320.856
320.966
321.084
320.448
320.668
320.798
320.906
321.031
320.536
320.753
320.908
321.013
321.098
320.759
320.613
320.872
320.73
320.767
320.628
320.889
320.753
320.789
320.657
320.922
320.795
320.388
320.276
320.621
320.506
320.754
320.636
320.856
320.736
320.974
320.854
320.498
320.432
320.72
320.653
320.871
320.791
320.968
320.87
321.043
320.921
320.846
320.822
320.935
320.934
320.645
320.626
320.75
320.763
321.053
321.022
320.977
320.926
321.003
321.02
321.068
321.092
320.833
320.863
320.906
320.944
321.114
321.099
321.173
321.164
321.126
321.062
321.16
321.061
321.057
320.976
321.105
320.994
321.183
321.134
321.206
321.12
321.231
321.189
321.249
321.173
320.414
320.218
320.034
320.486
320.264
320.079
320.442
320.243
320.055
320.519
320.295
320.102
320.482
320.287
320.095
320.571
320.337
320.131
320.124
319.936
319.733
320.351
320.155
319.948
320.478
320.274
320.062
320.568
320.364
320.159
320.628
320.382
320.157
320.311
320.106
319.875
320.525
320.316
320.084
320.645
320.422
320.183
320.698
320.464
320.222
320.685
320.426
320.178
321.109
321.025
320.802
320.393
321.071
320.981
320.751
320.338
321.126
321.038
320.815
320.402
321.102
321.006
320.773
320.36
321.147
321.054
320.84
320.44
321.157
321.052
320.823
320.414
321.15
321.034
320.789
320.37
321.174
321.044
320.789
320.367
321.197
321.086
320.862
320.457
321.19
321.071
320.866
320.501
321.162
321.062
320.86
320.484
321.15
321.043
320.853
320.509
321.226
321.104
320.862
320.441
321.225
321.095
320.878
320.504
321.256
321.122
320.872
320.453
321.255
321.116
320.892
320.519
321.103
321.028
320.825
320.44
321.05
320.987
320.814
320.478
321.107
321.03
320.83
320.448
321.053
320.986
320.815
320.482
321.114
321.031
320.838
320.467
321.064
320.99
320.818
320.489
321.116
321.027
320.843
320.494
321.074
320.993
320.823
320.503
321.111
321.015
320.839
320.519
320.97
320.917
320.762
320.521
320.879
320.833
320.675
320.449
320.98
320.922
320.766
320.526
320.89
320.838
320.677
320.451
320.998
320.932
320.772
320.53
320.908
320.847
320.682
320.455
321.024
320.947
320.783
320.54
320.933
320.86
320.689
320.461
321.059
320.966
320.796
320.55
320.962
320.874
320.698
320.466
321.125
321.003
320.814
320.559
321.037
320.918
320.725
320.485
321.092
320.984
320.804
320.554
321
320.896
320.711
320.476
321.154
321.021
320.823
320.563
321.072
320.939
320.738
320.495
321.182
321.039
320.835
320.573
321.104
320.959
320.751
320.505
319.773
319.273
318.848
318.502
318.237
319.741
319.247
318.823
318.478
318.213
319.777
319.275
318.849
318.503
318.238
319.748
319.251
318.827
318.481
318.216
319.784
319.278
318.851
318.505
318.239
319.77
319.271
318.845
318.498
318.232
319.758
319.258
318.831
318.484
318.219
319.765
319.263
318.835
318.488
318.221
319.789
319.281
318.853
318.506
318.24
319.763
319.244
318.815
318.468
318.202
319.783
319.272
318.844
318.497
318.231
319.755
319.236
318.807
318.46
318.195
319.789
319.281
318.852
318.505
318.238
319.76
319.24
318.81
318.463
318.197
319.797
319.286
318.856
318.508
318.241
319.762
319.239
318.808
318.46
318.194
319.77
319.262
318.835
318.49
318.224
319.733
319.218
318.791
318.446
318.181
319.77
319.261
318.834
318.488
318.223
319.733
319.217
318.79
318.445
318.18
319.77
319.257
318.829
318.483
318.218
319.733
319.215
318.788
318.442
318.177
319.759
319.241
318.812
318.466
318.201
319.727
319.207
318.779
318.434
318.169
319.737
319.217
318.789
318.443
318.178
317.637
317.557
317.676
317.593
317.742
317.651
317.827
317.72
317.912
317.788
318.047
317.904
317.979
317.839
318.115
317.977
318.185
318.06
316.763
315.809
315.01
314.39
313.969
316.777
315.817
315.009
314.385
313.957
316.781
315.818
315.016
314.395
313.973
316.793
315.823
315.014
314.387
313.959
316.814
315.837
315.028
314.403
313.98
316.825
315.841
315.026
314.395
313.967
316.859
315.864
315.046
314.417
313.992
316.866
315.865
315.042
314.407
313.977
316.911
315.897
315.069
314.434
314.007
316.91
315.894
315.062
314.422
313.99
317.025
315.981
315.131
314.483
314.05
317.013