/*--------------------------------*- C++ -*----------------------------------*\
  =========                 |
  \\      /  F ield         | OpenFOAM: The Open Source CFD Toolbox
   \\    /   O peration     | Website:  https://openfoam.org
    \\  /    A nd           | Version:  12
     \\/     M anipulation  |
\*---------------------------------------------------------------------------*/
FoamFile
{
    format      ascii;
    class       volScalarField;
    location    "180";
    object      T;
}
// * * * * * * * * * * * * * * * * * * * * * * * * * * * * * * * * * * * * * //

dimensions      [];

internalField   nonuniform List<scalar> 
4480
(
1.48841e-11
3.19668e-09
9.08935e-06
0.00091189
0.0101485
0.0372009
0.0811868
0.135198
0.192443
0.248259
0.300022
0.346532
0.387447
0.422894
0.453228
0.478893
0.500352
0.518047
0.532378
0.543701
0.552331
0.558537
0.562552
0.564575
0.564776
0.563303
0.560283
0.556415
0.552495
0.548503
0.544418
0.540217
0.535877
0.531377
0.526694
0.521804
0.516681
0.511301
0.505632
0.499647
0.493316
0.4866
0.479464
0.471869
0.463771
0.455119
0.44586
0.435938
0.425283
0.413817
0.401461
0.388117
0.373676
0.358028
0.341057
0.322654
0.302744
0.281296
0.258362
0.23411
0.208843
0.183014
0.157205
0.132091
0.108359
0.0866406
0.0674259
0.0510159
0.0374969
0.0267595
0.0185366
0.0124637
0.00813576
0.00515752
0.00317677
0.00190237
0.00110833
0.000628697
0.000347507
0.00018733
9.85721e-05
5.06754e-05
2.54764e-05
1.32019e-05
7.31278e-06
4.40874e-06
2.88563e-06
2.01462e-06
1.47109e-06
1.10849e-06
8.56397e-07
6.77145e-07
5.48163e-07
4.54799e-07
3.87182e-07
3.38604e-07
3.04564e-07
2.82128e-07
2.69537e-07
2.65974e-07
2.71486e-07
2.8705e-07
3.148e-07
3.58508e-07
4.24409e-07
5.22683e-07
6.70048e-07
8.94345e-07
1.24284e-06
1.79743e-06
2.70309e-06
4.22169e-06
6.83559e-06
1.1449e-05
1.9782e-05
3.51484e-05
6.39896e-05
0.00011891
0.000224742
0.000431419
0.000845404
0.00171395
0.00363951
0.00831605
0.0226326
0.0646244
0.124526
0.202851
0.142668
0.0274737
0.00563993
0.000709468
7.60198e-05
7.95921e-06
7.16943e-07
4.96115e-08
2.4531e-09
6.96448e-11
8.74188e-13
2.71726e-15
1.17664e-11
3.61967e-07
0.00024663
0.00965755
0.0559972
0.139512
0.238322
0.334768
0.420398
0.492934
0.553034
0.602387
0.642818
0.67594
0.703075
0.725292
0.743427
0.758143
0.769969
0.779328
0.78656
0.791932
0.795666
0.797938
0.798892
0.79864
0.797277
0.794714
0.791066
0.786431
0.780901
0.774568
0.767521
0.75984
0.751597
0.742861
0.733691
0.724138
0.714239
0.704032
0.693541
0.682784
0.671767
0.660497
0.648967
0.637162
0.625066
0.612651
0.599883
0.586721
0.573115
0.559012
0.544338
0.529018
0.512968
0.496088
0.478283
0.459448
0.439489
0.418333
0.395925
0.372268
0.347402
0.321442
0.294572
0.267048
0.239195
0.211409
0.184133
0.157838
0.132988
0.110008
0.0892457
0.0709437
0.0552175
0.0420569
0.0313346
0.0228317
0.0162687
0.0113369
0.00772748
0.00515366
0.00336421
0.00216658
0.00138582
0.000885523
0.000569005
0.000370221
0.000245504
0.000166813
0.000116558
8.38996e-05
6.22357e-05
4.75553e-05
3.74108e-05
3.02908e-05
2.52465e-05
2.16718e-05
1.91753e-05
1.7505e-05
1.65047e-05
1.6089e-05
1.62319e-05
1.6964e-05
1.83808e-05
2.0661e-05
2.41036e-05
2.91897e-05
3.66903e-05
4.78461e-05
6.4678e-05
9.05201e-05
0.00013095
0.000195407
0.000300051
0.000472796
0.000762263
0.00125384
0.00209906
0.00357167
0.00618007
0.0108917
0.0195396
0.0355014
0.0644673
0.112049
0.174525
0.231186
0.165944
0.042559
0.00961288
0.00185865
0.000306387
4.245e-05
4.82667e-06
4.13659e-07
2.52013e-08
9.03368e-10
1.50684e-11
7.49178e-14
4.68214e-09
1.15027e-05
0.00251362
0.0434996
0.152751
0.28897
0.415369
0.518782
0.599247
0.661117
0.709043
0.746735
0.776833
0.801157
0.820959
0.837136
0.850344
0.861083
0.86975
0.876655
0.882055
0.886151
0.889112
0.89107
0.892133
0.892383
0.89189
0.890569
0.888401
0.885428
0.88169
0.877218
0.872048
0.866207
0.859734
0.852659
0.845022
0.836856
0.828199
0.819085
0.809548
0.799618
0.789324
0.778688
0.76773
0.756468
0.744908
0.733056
0.72091
0.708464
0.695705
0.68261
0.669152
0.655294
0.640998
0.626203
0.610854
0.594877
0.578195
0.560725
0.542382
0.523082
0.502743
0.481305
0.458719
0.434968
0.41007
0.384088
0.357138
0.329397
0.301096
0.272534
0.24405
0.216027
0.188859
0.162937
0.138622
0.116219
0.0959605
0.0779938
0.0623724
0.0490634
0.0379536
0.0289309
0.0217815
0.0162242
0.0119808
0.00879262
0.0064313
0.0047035
0.00345132
0.00255012
0.00190421
0.00144188
0.00111061
0.000872555
0.00070083
0.00057657
0.000486645
0.000421991
0.00037642
0.000345805
0.000327532
0.000320156
0.000323245
0.000337336
0.00036405
0.000406381
0.000469204
0.000560124
0.000690862
0.000879445
0.00115371
0.00155687
0.00215632
0.00305767
0.00442693
0.00652555
0.00976583
0.0147976
0.0226381
0.0348371
0.0535956
0.0816142
0.121208
0.171762
0.224891
0.257645
0.192701
0.0618282
0.0165264
0.00384078
0.000762459
0.000125674
1.69114e-05
1.7144e-06
1.24611e-07
5.45993e-09
1.16501e-10
7.98616e-13
2.45765e-07
0.000162193
0.0137671
0.11972
0.290351
0.448767
0.569376
0.655425
0.71673
0.761803
0.79639
0.823945
0.846435
0.864998
0.880359
0.893035
0.90344
0.911912
0.918745
0.924186
0.928445
0.931696
0.934083
0.935726
0.936714
0.937119
0.936996
0.936312
0.935038
0.933198
0.930806
0.92787
0.924396
0.920387
0.915847
0.910782
0.905202
0.899111
0.892529
0.885468
0.877947
0.869986
0.861605
0.852828
0.843673
0.834164
0.824317
0.81415
0.803675
0.792905
0.781845
0.770496
0.758859
0.746922
0.734676
0.722098
0.709162
0.695831
0.682068
0.667817
0.653026
0.637623
0.621541
0.604702
0.587024
0.56843
0.548846
0.528205
0.50646
0.483581
0.459572
0.434473
0.408361
0.381364
0.353656
0.325457
0.297035
0.26869
0.240745
0.213536
0.187395
0.162627
0.139502
0.118304
0.0992721
0.0824636
0.0678564
0.0553606
0.0448311
0.0360847
0.0289163
0.023113
0.0184669
0.0147834
0.0118877
0.00962753
0.00787423
0.00652145
0.00548353
0.00469274
0.00409667
0.00365564
0.00334054
0.00313094
0.00301385
0.00298278
0.00303763
0.00318488
0.0034387
0.00382292
0.00437417
0.00514677
0.00621996
0.00770835
0.00977696
0.0126624
0.016702
0.0223722
0.0303361
0.041495
0.0570208
0.0783121
0.106755
0.143119
0.186409
0.232026
0.26912
0.277971
0.215401
0.0843692
0.0260623
0.00691058
0.00155497
0.000289323
4.4024e-05
5.06791e-06
4.23175e-07
2.17658e-08
5.64461e-10
4.93821e-12
5.16285e-06
0.00128249
0.0484153
0.239476
0.441386
0.587273
0.682024
0.743889
0.786835
0.81925
0.845521
0.867635
0.886406
0.902227
0.915396
0.92621
0.934983
0.942012
0.947572
0.951913
0.955249
0.957755
0.95958
0.960838
0.96162
0.961992
0.962003
0.961641
0.960855
0.959661
0.958066
0.956075
0.953688
0.950899
0.947705
0.944099
0.940074
0.93563
0.930763
0.925476
0.91977
0.913656
0.907137
0.900231
0.892948
0.885305
0.877319
0.869004
0.860377
0.851455
0.842252
0.832779
0.823046
0.813061
0.802827
0.792346
0.781609
0.770604
0.759322
0.747735
0.735817
0.723531
0.710836
0.69768
0.684001
0.66974
0.654821
0.63917
0.622711
0.605364
0.587059
0.567728
0.547324
0.525811
0.503181
0.479449
0.454671
0.42893
0.402354
0.375113
0.347408
0.319477
0.291587
0.264036
0.237252
0.211541
0.18718
0.164402
0.143384
0.124244
0.10704
0.0917697
0.0783815
0.0667804
0.0568399
0.0484127
0.0413407
0.0354638
0.0306272
0.0266877
0.0235162
0.0210008
0.0190479
0.0175817
0.0165446
0.0158971
0.0156174
0.0157021
0.016168
0.0170546
0.0184284
0.0203895
0.0230797
0.0266948
0.0314985
0.0378395
0.0461702
0.0570611
0.0712048
0.0893881
0.112405
0.140855
0.174755
0.212924
0.252121
0.286004
0.304091
0.291657
0.22991
0.10813
0.0377626
0.011174
0.00278503
0.000571337
9.5967e-05
1.22328e-05
1.14196e-06
6.67977e-08
2.02388e-09
2.14666e-11
5.98888e-05
0.00657308
0.122358
0.384649
0.576522
0.688744
0.754388
0.796601
0.827587
0.853222
0.875845
0.895865
0.913138
0.927605
0.939405
0.948832
0.956226
0.961927
0.966252
0.969471
0.97182
0.973495
0.974651
0.97541
0.97586
0.976067
0.976071
0.975879
0.97539
0.974617
0.973561
0.97222
0.970591
0.968663
0.966429
0.963876
0.960998
0.957781
0.954219
0.950308
0.946042
0.941418
0.936439
0.931109
0.925436
0.919426
0.913092
0.906445
0.899503
0.892276
0.884783
0.877037
0.869053
0.860844
0.852421
0.843795
0.834972
0.825954
0.81674
0.80733
0.797715
0.787875
0.777796
0.767449
0.756802
0.745817
0.734445
0.722634
0.710326
0.697449
0.683937
0.669713
0.654704
0.638834
0.622029
0.604229
0.585377
0.565439
0.544392
0.52224
0.499012
0.474774
0.449614
0.423626
0.397073
0.370188
0.343229
0.316471
0.290192
0.264667
0.240153
0.216877
0.195028
0.174754
0.156155
0.139286
0.124157
0.110743
0.0989828
0.088796
0.0800852
0.0727447
0.0666701
0.0617622
0.0579343
0.0551164
0.0532593
0.0523391
0.05236
0.0533595
0.0554132
0.0586392
0.063206
0.0693381
0.0773215
0.0875061
0.100302
0.116157
0.135518
0.158736
0.185928
0.216728
0.249944
0.283122
0.312052
0.330353
0.329431
0.299636
0.234708
0.130625
0.0508198
0.0165722
0.00452161
0.00101018
0.00018481
2.56957e-05
2.63529e-06
1.71606e-07
5.91488e-09
7.3628e-11
0.000455856
0.024093
0.239959
0.526854
0.677647
0.7536
0.797264
0.827544
0.852549
0.875608
0.897322
0.916831
0.933365
0.946748
0.957221
0.965202
0.971124
0.975393
0.97836
0.980334
0.98157
0.982283
0.982643
0.982783
0.982793
0.982736
0.982644
0.982528
0.982246
0.981798
0.981177
0.980371
0.979367
0.97815
0.976705
0.975013
0.973063
0.970841
0.968333
0.965532
0.962428
0.959016
0.955295
0.951262
0.946923
0.942279
0.937337
0.932108
0.926606
0.920839
0.914822
0.908574
0.902105
0.895431
0.88857
0.881533
0.87433
0.866978
0.859481
0.851844
0.844072
0.836162
0.828112
0.819909
0.811544
0.802994
0.794233
0.785232
0.775953
0.766355
0.756384
0.745988
0.735102
0.723666
0.711607
0.698851
0.685327
0.670963
0.655693
0.639456
0.622192
0.603871
0.584466
0.563918
0.5423
0.519682
0.496169
0.471902
0.447054
0.421829
0.396451
0.371164
0.346219
0.321861
0.29833
0.275841
0.254589
0.234732
0.216396
0.199673
0.184621
0.17127
0.159624
0.14967
0.141386
0.134746
0.129728
0.126326
0.124547
0.12443
0.126037
0.129472
0.13487
0.142408
0.152291
0.164743
0.179984
0.198183
0.219392
0.243444
0.269797
0.297346
0.324173
0.3473
0.362483
0.364218
0.346223
0.303065
0.233919
0.146
0.0641934
0.022872
0.0067806
0.00163769
0.000323742
4.86611e-05
5.42448e-06
3.88086e-07
1.49705e-08
2.14654e-10
0.00255365
0.0676832
0.385174
0.640756
0.742396
0.791645
0.822468
0.846843
0.869563
0.892308
0.914392
0.933848
0.949624
0.96173
0.97067
0.977037
0.981355
0.984066
0.985551
0.986139
0.986116
0.985722
0.985153
0.98455
0.984016
0.98361
0.983357
0.983257
0.983134
0.982972
0.982751
0.982445
0.98203
0.981479
0.980766
0.979868
0.978762
0.977432
0.975861
0.974032
0.97194
0.969572
0.966926
0.963999
0.960789
0.957303
0.953544
0.949519
0.945237
0.940712
0.935954
0.930977
0.925798
0.920432
0.914892
0.909196
0.903358
0.897392
0.89131
0.885124
0.878844
0.87247
0.866014
0.859472
0.85284
0.846116
0.839286
0.832339
0.825248
0.817994
0.810546
0.802871
0.794922
0.786661
0.77803
0.768978
0.759444
0.749364
0.738675
0.727305
0.715186
0.70226
0.688457
0.673702
0.657913
0.641087
0.623215
0.604316
0.584438
0.563657
0.542076
0.519836
0.497102
0.474063
0.450933
0.427938
0.40531
0.383283
0.362082
0.341922
0.322994
0.305475
0.289509
0.275223
0.26272
0.252084
0.243388
0.236693
0.23206
0.229551
0.229236
0.23119
0.235498
0.242248
0.251514
0.263341
0.277709
0.294484
0.31335
0.333715
0.354589
0.374454
0.391108
0.401564
0.402038
0.388202
0.355919
0.302873
0.231331
0.151003
0.0768462
0.0297019
0.00951491
0.00247274
0.000525608
8.49666e-05
1.02323e-05
7.98343e-07
3.41606e-08
5.58952e-10
0.0114936
0.152894
0.52546
0.715341
0.779699
0.813905
0.838295
0.860103
0.88239
0.905909
0.928859
0.948187
0.962876
0.973408
0.98063
0.985277
0.9879
0.988942
0.988797
0.987824
0.986353
0.984669
0.982997
0.98151
0.980319
0.979485
0.979024
0.978911
0.978928
0.97905
0.979236
0.979446
0.979636
0.97977
0.979804
0.979704
0.97944
0.978982
0.97831
0.977408
0.976258
0.974855
0.973188
0.971255
0.969055
0.96659
0.963864
0.960887
0.957666
0.954211
0.950535
0.946651
0.942575
0.938322
0.933906
0.929346
0.924654
0.919848
0.914942
0.909949
0.904883
0.899752
0.894563
0.889325
0.884042
0.878713
0.873338
0.86791
0.86242
0.85686
0.851211
0.845451
0.839559
0.833503
0.827255
0.820776
0.814024
0.806954
0.799516
0.791657
0.78332
0.774451
0.764986
0.754867
0.74396
0.732238
0.719651
0.706158
0.691735
0.676371
0.660087
0.642913
0.624919
0.606192
0.586855
0.567052
0.546957
0.52676
0.506675
0.48692
0.467727
0.449319
0.431921
0.415743
0.400985
0.387827
0.376433
0.366946
0.359495
0.354189
0.351121
0.350358
0.351949
0.355905
0.362189
0.370692
0.381204
0.393358
0.406585
0.420031
0.432477
0.442249
0.447143
0.444423
0.430946
0.403544
0.359851
0.299708
0.22701
0.150879
0.08409
0.0366344
0.0126226
0.00351814
0.000801657
0.000138991
1.80268e-05
1.52853e-06
7.22667e-08
1.34473e-09
0.0410097
0.287908
0.627583
0.756254
0.801162
0.827946
0.849123
0.869933
0.892668
0.917503
0.941478
0.960344
0.973549
0.98228
0.987715
0.990611
0.991466
0.99069
0.988698
0.98591
0.982724
0.979494
0.976502
0.973955
0.971982
0.970642
0.96994
0.969794
0.969966
0.970404
0.97105
0.971841
0.972709
0.973596
0.974445
0.975205
0.975832
0.97629
0.976548
0.976583
0.976379
0.975919
0.975197
0.974208
0.972955
0.971439
0.969661
0.967631
0.96536
0.962858
0.960134
0.957207
0.954091
0.9508
0.947352
0.943764
0.940048
0.936224
0.932306
0.928307
0.924244
0.920128
0.915969
0.911776
0.907557
0.903317
0.89906
0.894786
0.890491
0.886174
0.881823
0.877435
0.87299
0.868477
0.863872
0.859154
0.854299
0.849272
0.844046
0.838578
0.832835
0.82677
0.820337
0.813493
0.806125
0.798199
0.789657
0.780446
0.770519
0.759838
0.748369
0.736096
0.723018
0.709157
0.694548
0.679257
0.663372
0.647009
0.630307
0.613428
0.596557
0.57989
0.563641
0.548027
0.533265
0.519569
0.507142
0.496172
0.486828
0.479251
0.473554
0.469811
0.468051
0.468243
0.470283
0.473968
0.478971
0.484796
0.49074
0.495828
0.498762
0.497868
0.491091
0.47605
0.450264
0.411603
0.359093
0.294022
0.221061
0.148447
0.0861071
0.0415561
0.0159684
0.00476174
0.0011609
0.000215624
3.00872e-05
2.77015e-06
1.4461e-07
3.0605e-09
0.0954525
0.424663
0.697623
0.779075
0.814698
0.837525
0.856926
0.877474
0.901108
0.927567
0.95257
0.97054
0.981917
0.988769
0.992457
0.993603
0.992566
0.989725
0.985552
0.980577
0.975312
0.97021
0.965628
0.961821
0.958929
0.957017
0.956065
0.955893
0.956264
0.957097
0.958303
0.959787
0.961456
0.963222
0.965006
0.966739
0.96836
0.969822
0.971087
0.97212
0.972903
0.97342
0.973658
0.973614
0.973289
0.972687
0.971813
0.970676
0.969287
0.967659
0.965805
0.96374
0.961483
0.959045
0.956446
0.953703
0.950833
0.947853
0.944775
0.94162
0.9384
0.935127
0.931815
0.928475
0.925114
0.921742
0.918363
0.91498
0.911599
0.908215
0.904833
0.901443
0.898039
0.894615
0.891156
0.887657
0.884093
0.880452
0.876709
0.87284
0.868823
0.86463
0.860222
0.855574
0.850607
0.84528
0.83955
0.833372
0.826702
0.819489
0.811698
0.803287
0.794229
0.784508
0.774113
0.76306
0.751372
0.739096
0.726303
0.713086
0.699557
0.685851
0.672121
0.658541
0.645287
0.632552
0.620517
0.609365
0.599262
0.59035
0.582741
0.576503
0.571651
0.568134
0.565814
0.564441
0.563636
0.562844
0.561309
0.558027
0.551709
0.540769
0.523358
0.49749
0.461317
0.413609
0.35447
0.286151
0.213616
0.144181
0.0856899
0.0435357
0.01832
0.00618084
0.00161028
0.000320381
4.81093e-05
4.81366e-06
2.77826e-07
6.70171e-09
0.176288
0.533568
0.739048
0.797032
0.824643
0.844248
0.862606
0.883264
0.908047
0.936314
0.962307
0.978911
0.988241
0.993292
0.995348
0.994703
0.991527
0.986217
0.97938
0.971719
0.963916
0.956557
0.950086
0.944806
0.940876
0.938346
0.937168
0.937012
0.937669
0.939022
0.940938
0.943284
0.945929
0.94875
0.95164
0.954508
0.957274
0.959874
0.962258
0.964388
0.966236
0.967789
0.969034
0.969964
0.970586
0.9709
0.970917
0.970649
0.970107
0.969308
0.968267
0.967001
0.965529
0.963866
0.962032
0.960044
0.95792
0.955678
0.953335
0.950904
0.948404
0.945847
0.943245
0.940611
0.937957
0.935288
0.932614
0.929939
0.927269
0.924607
0.921954
0.919309
0.91667
0.914033
0.911394
0.908744
0.906077
0.903377
0.900636
0.897838
0.894967
0.892005
0.888928
0.885719
0.882322
0.878711
0.874845
0.870696
0.866225
0.861392
0.856161
0.850494
0.844356
0.837713
0.830545
0.822832
0.814565
0.805752
0.796411
0.786577
0.776304
0.765667
0.754753
0.743669
0.732535
0.721484
0.710652
0.70018
0.690194
0.680806
0.672103
0.664133
0.656888
0.650296
0.644194
0.638314
0.632249
0.625428
0.61708
0.606214
0.591597
0.571771
0.545127
0.510083
0.465385
0.410581
0.346614
0.276367
0.204825
0.138442
0.0834758
0.0438011
0.0194633
0.00711028
0.00206651
0.000459664
7.43675e-05
8.10175e-06
5.18268e-07
1.42958e-08
0.278497
0.612857
0.765595
0.809843
0.832707
0.849393
0.866642
0.887587
0.913633
0.943835
0.970778
0.98558
0.992802
0.996266
0.996811
0.994214
0.988478
0.980115
0.969977
0.959023
0.948158
0.938121
0.929455
0.92251
0.917452
0.914305
0.912974
0.912913
0.913993
0.916043
0.918877
0.922306
0.926154
0.930256
0.934468
0.93867
0.942761
0.94666
0.950307
0.953657
0.956679
0.959352
0.961668
0.963625
0.965226
0.966478
0.967398
0.967995
0.968286
0.968294
0.968033
0.967527
0.966789
0.965846
0.964714
0.963413
0.961963
0.96038
0.958687
0.956892
0.955018
0.953077
0.951082
0.949047
0.94698
0.944896
0.942797
0.940694
0.938593
0.936497
0.93441
0.932334
0.930269
0.928213
0.926168
0.924126
0.922086
0.920041
0.917984
0.915908
0.913799
0.911647
0.909442
0.907167
0.904789
0.902283
0.899626
0.896793
0.893757
0.890486
0.886954
0.883128
0.878973
0.874458
0.869557
0.86424
0.858481
0.852271
0.845594
0.838452
0.83086
0.822841
0.814428
0.805677
0.796646
0.787408
0.778041
0.768631
0.759249
0.749963
0.740815
0.731813
0.722918
0.714029
0.704956
0.695406
0.684955
0.673023
0.658843
0.641452
0.619691
0.592258
0.557799
0.515135
0.463575
0.403335
0.336017
0.264904
0.194855
0.131528
0.0799273
0.0427886
0.0196949
0.00758312
0.00236586
0.000575207
0.000103446
1.27284e-05
9.35433e-07
2.99836e-08
0.372226
0.692421
0.783786
0.819012
0.838427
0.853707
0.869531
0.890597
0.917939
0.950161
0.978063
0.990692
0.995908
0.998091
0.997177
0.992293
0.983369
0.971187
0.956983
0.942058
0.927574
0.914443
0.903307
0.894552
0.888332
0.884629
0.883282
0.883456
0.885153
0.888134
0.892143
0.896926
0.902245
0.907886
0.913664
0.919424
0.92504
0.930417
0.935485
0.940187
0.944493
0.948384
0.951849
0.954892
0.957519
0.959743
0.961581
0.963053
0.964178
0.96498
0.965482
0.965705
0.965673
0.965409
0.964934
0.964268
0.963437
0.962454
0.961343
0.960118
0.958795
0.957394
0.955925
0.954404
0.952839
0.951244
0.949625
0.947993
0.946352
0.944709
0.943069
0.941434
0.939806
0.93819
0.936584
0.934983
0.933394
0.931806
0.930223
0.928633
0.927038
0.925424
0.923788
0.922119
0.9204
0.918602
0.916716
0.914723
0.912602
0.910334
0.907894
0.905258
0.9024
0.899293
0.895906
0.892212
0.888184
0.883795
0.879026
0.873853
0.868264
0.862255
0.855821
0.848973
0.841726
0.834102
0.826126
0.817824
0.809221
0.800327
0.791134
0.781603
0.771654
0.76114
0.749839
0.737428
0.723456
0.707325
0.688276
0.66538
0.637566
0.603695
0.562691
0.513778
0.456783
0.392512
0.323074
0.251984
0.183882
0.123693
0.0754001
0.040844
0.0192276
0.00766558
0.00250955
0.000649038
0.000125847
1.69187e-05
1.37744e-06
4.97102e-08
0.44194
0.723208
0.796758
0.82543
0.842189
0.856415
0.872135
0.892388
0.920985
0.955281
0.98422
0.994419
0.99788
0.999122
0.996675
0.988951
0.975996
0.959079
0.939957
0.920351
0.901706
0.88511
0.871288
0.860644
0.853304
0.849183
0.848028
0.848647
0.851226
0.855438
0.860938
0.867388
0.87448
0.881942
0.889541
0.897089
0.904436
0.91147
0.918106
0.924288
0.929986
0.935179
0.939865
0.944049
0.947744
0.950969
0.953749
0.956103
0.958063
0.959654
0.960904
0.961839
0.962486
0.962871
0.963017
0.962949
0.96269
0.962261
0.961681
0.96097
0.960144
0.959221
0.958215
0.95714
0.956007
0.954828
0.953613
0.952371
0.95111
0.949832
0.948549
0.947263
0.945976
0.944693
0.943414
0.942141
0.940873
0.939613
0.938356
0.937103
0.93585
0.934595
0.933332
0.932054
0.930755
0.929409
0.928009
0.926545
0.924998
0.923361
0.921609
0.919727
0.917693
0.915487
0.913079
0.910448
0.907562
0.904396
0.900923
0.89711
0.892936
0.888372
0.883393
0.877983
0.872121
0.865792
0.858977
0.851658
0.84381
0.835393
0.826348
0.816588
0.805978
0.794325
0.78136
0.766719
0.749917
0.730333
0.707209
0.679655
0.646699
0.607381
0.560918
0.506927
0.445726
0.378625
0.308114
0.237818
0.172086
0.115166
0.0701779
0.0382427
0.0182516
0.00744316
0.00251708
0.000679363
0.000138904
1.98988e-05
1.74525e-06
6.86951e-08
0.497382
0.746017
0.807142
0.829624
0.8442
0.857591
0.873461
0.893864
0.922779
0.959167
0.989309
0.996969
0.999026
0.999646
0.99542
0.984075
0.966058
0.943378
0.918455
0.893484
0.870196
0.849835
0.833192
0.82067
0.812345
0.808036
0.806831
0.808219
0.812083
0.817962
0.825392
0.833928
0.843175
0.852793
0.862503
0.872083
0.881362
0.890216
0.898558
0.906332
0.913508
0.920073
0.926031
0.931395
0.936186
0.940431
0.944159
0.947404
0.950193
0.952564
0.954548
0.956175
0.957477
0.958482
0.959219
0.959713
0.959989
0.960071
0.95998
0.959737
0.959358
0.958863
0.958267
0.957582
0.956825
0.956006
0.955134
0.954219
0.953272
0.952296
0.9513
0.950288
0.949266
0.948237
0.947205
0.946173
0.945141
0.94411
0.943082
0.942058
0.941033
0.94001
0.938987
0.93796
0.936922
0.935857
0.934759
0.933619
0.932429
0.931175
0.929848
0.928432
0.926908
0.925262
0.923471
0.921512
0.919358
0.916985
0.914363
0.911458
0.908241
0.904669
0.900715
0.896334
0.891484
0.886127
0.880211
0.873682
0.866472
0.858497
0.84965
0.839795
0.828741
0.816244
0.801986
0.785543
0.766393
0.743889
0.717274
0.685704
0.648324
0.604369
0.553357
0.495302
0.430969
0.362089
0.291428
0.222612
0.159649
0.106152
0.0644943
0.0352053
0.0169269
0.00700032
0.00241821
0.000671849
0.000142523
2.13545e-05
1.97534e-06
8.27618e-08
0.541712
0.762135
0.813079
0.83191
0.844575
0.857216
0.87335
0.894948
0.923539
0.961785
0.993388
0.998568
0.99962
0.999881
0.993435
0.97747
0.953206
0.92368
0.892102
0.861156
0.832838
0.808509
0.789006
0.774713
0.765637
0.761472
0.760447
0.763002
0.768576
0.776556
0.786332
0.797339
0.809085
0.821158
0.833227
0.84504
0.856413
0.867209
0.877349
0.886784
0.895486
0.903456
0.910706
0.917261
0.923151
0.928411
0.93308
0.937197
0.940801
0.943931
0.946624
0.948918
0.950847
0.952444
0.953738
0.954762
0.955536
0.956091
0.956448
0.95663
0.956658
0.956544
0.956312
0.955974
0.955543
0.955032
0.954452
0.953813
0.953125
0.952394
0.951631
0.950836
0.95002
0.949184
0.948338
0.947479
0.946612
0.945742
0.94487
0.943996
0.943121
0.942247
0.941372
0.940494
0.939612
0.938716
0.937796
0.936849
0.935868
0.934843
0.933766
0.932624
0.931409
0.930101
0.928685
0.927139
0.925441
0.923568
0.921486
0.919169
0.916576
0.913669
0.910404
0.906731
0.902595
0.897931
0.892671
0.886728
0.880003
0.872373
0.863687
0.853758
0.842342
0.829144
0.813778
0.795775
0.774564
0.749476
0.719762
0.684642
0.643389
0.595461
0.540686
0.479462
0.412959
0.343252
0.273276
0.206568
0.146751
0.0968362
0.0585426
0.0319089
0.0153845
0.00641162
0.00224414
0.000635392
0.000138185
2.13558e-05
2.05038e-06
8.97658e-08
0.577058
0.773422
0.816263
0.83245
0.843329
0.855234
0.871657
0.894525
0.924234
0.963093
0.996492
0.999455
0.999885
0.999969
0.990675
0.968887
0.937091
0.899647
0.860651
0.823252
0.78964
0.761248
0.738935
0.723072
0.713584
0.709999
0.709901
0.714128
0.721923
0.732477
0.745017
0.758847
0.77337
0.78811
0.802694
0.816852
0.830385
0.843171
0.855125
0.866217
0.876434
0.885787
0.894303
0.902017
0.908972
0.915214
0.920786
0.92574
0.93012
0.933974
0.937341
0.940264
0.942782
0.944932
0.946746
0.948255
0.949494
0.95048
0.951249
0.951814
0.952205
0.952432
0.95252
0.952483
0.952335
0.952086
0.951754
0.951343
0.950869
0.950336
0.949755
0.94913
0.948471
0.947779
0.947065
0.94633
0.945578
0.944813
0.944039
0.943257
0.942473
0.941682
0.94089
0.940098
0.9393
0.938496
0.937671
0.936827
0.935958
0.935058
0.934119
0.933133
0.932088
0.930977
0.929778
0.928476
0.927052
0.925479
0.923734
0.92178
0.919585
0.917107
0.914292
0.911091
0.907434
0.903245
0.898434
0.892897
0.8865
0.879089
0.870474
0.860415
0.848622
0.834732
0.818312
0.798834
0.775688
0.748191
0.715613
0.677262
0.632569
0.581234
0.523403
0.459838
0.392068
0.32242
0.253904
0.189886
0.133569
0.0873869
0.0524848
0.028495
0.0137288
0.00573878
0.00202296
0.000579372
0.000128028
2.01959e-05
1.98832e-06
8.96918e-08
0.605046
0.781136
0.817433
0.831132
0.840449
0.851544
0.868259
0.89255
0.924562
0.963344
0.99864
0.999859
0.999976
0.999994
0.987052
0.958068
0.917403
0.871056
0.824044
0.779891
0.74087
0.70841
0.683402
0.66625
0.65681
0.653851
0.655366
0.662084
0.672921
0.686784
0.702677
0.719755
0.737339
0.75491
0.772083
0.78859
0.80425
0.818955
0.832646
0.845306
0.856945
0.86759
0.877282
0.886071
0.894009
0.901157
0.907564
0.913289
0.918382
0.922898
0.926884
0.930387
0.933442
0.936098
0.938385
0.940338
0.941989
0.943369
0.944499
0.945408
0.946114
0.946642
0.947007
0.947228
0.947316
0.947291
0.947159
0.946936
0.946632
0.946253
0.945811
0.945313
0.944768
0.944179
0.943553
0.942898
0.942216
0.941512
0.940792
0.940059
0.939318
0.938568
0.937811
0.93705
0.936287
0.935519
0.934733
0.933933
0.933113
0.93227
0.931397
0.930486
0.929532
0.928519
0.927437
0.926271
0.924999
0.923602
0.922053
0.920321
0.91837
0.916157
0.913629
0.910728
0.907375
0.903489
0.898963
0.89367
0.887454
0.880124
0.871454
0.861154
0.848884
0.834227
0.816689
0.795695
0.770609
0.740746
0.70543
0.664078
0.61631
0.562088
0.501877
0.436778
0.36861
0.29987
0.23355
0.172765
0.120272
0.0779555
0.0464558
0.0250757
0.0120408
0.00503049
0.00177785
0.000512161
0.000114224
1.82465e-05
1.82519e-06
8.39306e-08
0.626905
0.785973
0.81665
0.827716
0.835879
0.846031
0.862988
0.888815
0.923347
0.963574
0.999814
0.999987
1
1
0.982455
0.944767
0.893916
0.837842
0.782454
0.73148
0.687091
0.650619
0.623032
0.604925
0.596134
0.592707
0.596984
0.6075
0.622625
0.640827
0.660828
0.681638
0.702534
0.723011
0.742725
0.761459
0.779074
0.79551
0.810739
0.824777
0.837655
0.849422
0.860133
0.869852
0.878642
0.886573
0.893706
0.900102
0.90582
0.910916
0.915443
0.919448
0.922977
0.926073
0.928773
0.931113
0.933125
0.934841
0.936287
0.937488
0.938467
0.939246
0.939843
0.940276
0.94056
0.940709
0.940739
0.940661
0.940484
0.940218
0.939877
0.939464
0.938992
0.938465
0.93789
0.937276
0.936628
0.93595
0.935246
0.934527
0.933791
0.933043
0.932287
0.931527
0.93076
0.929989
0.929206
0.928408
0.927595
0.926764
0.925908
0.925024
0.924104
0.923134
0.922107
0.921006
0.919815
0.918512
0.917075
0.915469
0.91366
0.911604
0.909246
0.90652
0.903348
0.899633
0.895253
0.890063
0.883879
0.876483
0.867598
0.8569
0.843988
0.828395
0.809579
0.786931
0.759802
0.727532
0.689532
0.645369
0.594872
0.538286
0.476384
0.410567
0.342872
0.275875
0.212453
0.155405
0.107024
0.0686781
0.0405675
0.0217384
0.0103822
0.00432355
0.00152667
0.000440511
9.86488e-05
1.5862e-05
1.60081e-06
7.4431e-08
0.643549
0.788518
0.814364
0.822913
0.829549
0.838545
0.855656
0.883141
0.920563
0.963785
0.999999
0.999999
0.999998
0.999999
0.976783
0.928771
0.866495
0.800136
0.736348
0.678788
0.629244
0.58879
0.558597
0.53986
0.532466
0.531324
0.53946
0.554759
0.574955
0.598028
0.62241
0.647001
0.671086
0.694225
0.71617
0.736778
0.755998
0.773816
0.790256
0.805365
0.819202
0.831836
0.843338
0.853782
0.863241
0.871792
0.879499
0.886429
0.892649
0.898216
0.90318
0.907598
0.911513
0.914971
0.918008
0.920665
0.922974
0.924966
0.926669
0.928106
0.929303
0.930279
0.931058
0.931656
0.932086
0.932369
0.932512
0.932534
0.932443
0.93225
0.931966
0.9316
0.931164
0.930661
0.930103
0.929495
0.928844
0.928161
0.927445
0.926707
0.925948
0.925178
0.924395
0.923606
0.922811
0.922013
0.921203
0.920384
0.919553
0.918708
0.917844
0.916954
0.916035
0.915077
0.914067
0.912993
0.911838
0.910584
0.909202
0.907663
0.905934
0.90396
0.901692
0.899058
0.895965
0.892309
0.887954
0.882725
0.876421
0.868778
0.859487
0.848171
0.834382
0.817609
0.79727
0.772744
0.743396
0.708635
0.66799
0.621207
0.568365
0.50999
0.447142
0.381464
0.315132
0.250703
0.190849
0.138004
0.0939821
0.059675
0.0349111
0.0185506
0.00879827
0.00364459
0.00128244
0.000369436
8.27492e-05
1.33314e-05
1.35017e-06
6.30808e-08
0.655658
0.78918
0.810732
0.816584
0.821347
0.828933
0.846043
0.875297
0.91602
0.963096
1
1
0.999998
0.999997
0.969951
0.909893
0.835123
0.758306
0.686563
0.623061
0.568774
0.524224
0.490949
0.471769
0.463018
0.46692
0.482631
0.505912
0.533171
0.561949
0.590745
0.618709
0.645369
0.670499
0.694005
0.715867
0.736112
0.754795
0.77198
0.787745
0.802173
0.815342
0.827339
0.838244
0.84814
0.857099
0.865193
0.872494
0.879063
0.88496
0.89024
0.894955
0.899152
0.902875
0.906165
0.909053
0.91158
0.913773
0.915662
0.91727
0.918621
0.919739
0.920641
0.921348
0.921876
0.922238
0.922448
0.922522
0.922474
0.92231
0.922046
0.921688
0.921248
0.920735
0.92016
0.919528
0.918847
0.918128
0.917374
0.916595
0.915793
0.914975
0.914147
0.913311
0.912471
0.911632
0.910783
0.909928
0.909065
0.90819
0.907305
0.906399
0.905468
0.904503
0.903495
0.902427
0.901289
0.900053
0.898697
0.897192
0.895495
0.89356
0.891319
0.8887
0.8856
0.881898
0.877434
0.872013
0.865399
0.857292
0.84734
0.835118
0.820139
0.801859
0.77968
0.752993
0.721219
0.683875
0.640651
0.591512
0.536796
0.477306
0.414346
0.349732
0.285682
0.224639
0.168992
0.120762
0.0812954
0.0510529
0.0295616
0.0155624
0.007321
0.00301188
0.00105399
0.000302381
6.75424e-05
1.08645e-05
1.09968e-06
5.13826e-08
0.663681
0.788239
0.805772
0.808285
0.810299
0.817044
0.833916
0.865011
0.909482
0.961334
0.999997
0.999997
0.999998
0.999996
0.961883
0.887963
0.799899
0.713022
0.634431
0.566238
0.507953
0.45896
0.421012
0.400607
0.392586
0.407253
0.43579
0.469748
0.504432
0.53798
0.569786
0.599662
0.627558
0.653498
0.677545
0.699778
0.720289
0.739175
0.75653
0.772445
0.787018
0.800338
0.812486
0.823547
0.8336
0.842728
0.850993
0.858463
0.865203
0.87127
0.876718
0.881597
0.885952
0.889827
0.893261
0.896287
0.89894
0.901249
0.903243
0.904947
0.906382
0.90757
0.908534
0.909289
0.90985
0.91024
0.910465
0.910542
0.910488
0.910308
0.910019
0.909631
0.909153
0.908597
0.907973
0.90729
0.906552
0.905775
0.904964
0.904123
0.903264
0.902387
0.901503
0.900613
0.899722
0.898834
0.897941
0.897047
0.896151
0.895248
0.894337
0.893414
0.89247
0.891499
0.890489
0.889425
0.888291
0.887065
0.885721
0.884223
0.882531
0.880585
0.878317