/*--------------------------------*- C++ -*----------------------------------*\
  =========                 |
  \\      /  F ield         | OpenFOAM: The Open Source CFD Toolbox
   \\    /   O peration     | Website:  https://openfoam.org
    \\  /    A nd           | Version:  13
     \\/     M anipulation  |
\*---------------------------------------------------------------------------*/
FoamFile
{
    format      ascii;
    class       volScalarField;
    location    "234.831886";
    object      T;
}
// * * * * * * * * * * * * * * * * * * * * * * * * * * * * * * * * * * * * * //

dimensions      [0 0 0 1 0 0 0];

internalField   nonuniform List<scalar> 
5712
(
1150.26
1150.17
1150.03
1149.89
1149.67
1149.54
1149.18
1149.07
1149.28
1149.15
1149.66
1149.53
1149.94
1149.82
1150.15
1150.06
1149.57
1149.4
1149.34
1149.1
1148.97
1148.75
1148.76
1148.47
1150.57
1151.08
1150.48
1150.96
1150.35
1150.84
1150.21
1150.67
1149.85
1150.12
1149.61
1149.95
1150.54
1150.26
1149.05
1148.62
1148.81
1148.5
1148.5
1148.14
1148.22
1147.95
1149.56
1149.12
1149.31
1148.97
1149.97
1149.54
1151.67
1152.01
1151.42
1151.78
1151.43
1151.86
1151.14
1151.54
1151.07
1151.66
1150.63
1151.18
1150.29
1150.83
1149.91
1150.46
1149.44
1149.37
1149.07
1149.04
1148.65
1148.55
1148.35
1148.26
1149.76
1149.87
1150.2
1150.22
1148.76
1148.76
1148.47
1148.53
1148.09
1148.01
1147.84
1147.79
1149.4
1149.58
1149.09
1149.34
1150.44
1151.1
1150.69
1151.43
1150.91
1151.59
1151.06
1151.83
1150.05
1150.69
1150.39
1151.11
1149.71
1150.33
1150.15
1150.86
1152.49
1153.25
1152.62
1153.37
1152.27
1152.97
1152.5
1153.22
1151.88
1152.43
1152.29
1152.88
1149.97
1149.03
1150.82
1151.46
1152.15
1149.16
1150.15
1151.17
1151.85
1152.6
1148.92
1149.8
1150.66
1151.47
1152.26
1153.96
1154.3
1154.34
1154.65
1153.6
1153.99
1154.1
1154.43
1152.98
1153.43
1153.69
1154.08
1149.38
1149.73
1150.46
1150.94
1151.46
1151.96
1152.26
1152.75
1153.31
1153.81
1149.08
1149.37
1150.07
1150.58
1151
1151.58
1151.92
1152.55
1153.08
1153.74
1149.62
1150.18
1149.21
1149.71
1148.64
1148.81
1148.28
1148.37
1150.19
1150.86
1150.59
1151.3
1148.86
1149.36
1148.63
1149.12
1147.98
1148.07
1147.77
1147.83
1149.83
1150.51
1149.6
1150.27
1151.31
1152.12
1152.69
1153.68
1151.63
1152.48
1152.91
1153.88
1151.01
1151.8
1152.49
1153.46
1150.73
1151.53
1152.19
1153.11
1154.4
1154.54
1154.82
1154.47
1154.52
1154.77
1154.17
1154.35
1154.64
1154.3
1154.37
1154.64
1153.7
1153.94
1154.27
1154.04
1154.15
1154.45
1150.17
1150.67
1151.2
1151.46
1151.9
1152.36
1152.44
1152.81
1153.22
1153.14
1153.45
1153.84
1153.83
1153.99
1154.35
1149.77
1150.33
1150.93
1151.25
1151.83
1152.43
1152.26
1152.77
1153.3
1153.07
1153.45
1153.92
1153.82
1154.02
1154.44
1147.9
1147.72
1147.74
1147.51
1148.38
1148.16
1148.2
1147.93
1147.8
1147.43
1147.76
1147.41
1147.69
1147.36
1147.62
1147.3
1147.36
1147.52
1147.27
1147.45
1147.29
1147.17
1147.33
1147.12
1147.71
1147.47
1147.26
1147.06
1147.12
1146.93
1147.09
1146.9
1147.05
1146.71
1147.11
1146.79
1147
1146.66
1147.02
1146.7
1146.96
1146.58
1146.87
1146.53
1146.81
1146.5
1146.64
1146.39
1147.48
1147.32
1147.28
1147.1
1147.99
1147.85
1147.75
1147.6
1146.95
1146.74
1147.13
1146.93
1147.07
1146.9
1146.87
1146.73
1147.52
1147.38
1147.29
1147.18
1146.77
1146.56
1146.59
1146.41
1146.67
1146.37
1146.5
1146.32
1146.82
1146.5
1146.67
1146.46
1146.53
1146.26
1146.34
1146.19
1146.37
1146.14
1146.21
1146.08
1147.06
1147.22
1146.75
1146.91
1147.05
1147.22
1146.72
1146.9
1147.05
1147.2
1146.69
1146.84
1147.63
1148.23
1147.26
1146.96
1146.64
1148.35
1147.76
1147.41
1147.12
1146.78
1148.12
1147.54
1147.12
1146.84
1146.61
1147.5
1147.88
1147.2
1147.57
1147.48
1147.84
1147.15
1147.51
1147.42
1147.77
1147.07
1147.4
1148.51
1148.8
1147.88
1148.18
1147.52
1147.83
1147.25
1147.56
1146.93
1147.25
1148.22
1148.39
1147.62
1147.79
1147.21
1147.42
1146.95
1147.21
1146.75
1147.07
1147.29
1147.35
1147.06
1147.05
1147.83
1147.87
1147.55
1147.51
1146.74
1146.81
1146.93
1147.07
1146.88
1146.82
1146.71
1146.63
1147.34
1147.25
1147.14
1147.03
1146.58
1146.61
1146.42
1146.44
1146.54
1146.7
1146.44
1146.7
1146.72
1146.93
1146.59
1146.88
1146.39
1146.51
1146.32
1146.55
1146.26
1146.37
1146.21
1146.41
1148.4
1148.92
1149.41
1148.21
1148.8
1149.29
1148.33
1148.86
1149.36
1148.13
1148.72
1149.23
1148.23
1148.75
1149.25
1147.99
1148.61
1149.16
1149.2
1149.7
1150.24
1148.59
1149.11
1149.66
1148.25
1148.79
1149.35
1148
1148.54
1149.09
1147.84
1148.49
1149.09
1148.71
1149.25
1149.86
1148.13
1148.68
1149.29
1147.81
1148.39
1149.02
1147.66
1148.28
1148.92
1147.69
1148.38
1149.03
1146.57
1146.79
1147.37
1148.46
1146.67
1146.9
1147.51
1148.6
1146.53
1146.76
1147.34
1148.43
1146.59
1146.84
1147.45
1148.55
1146.47
1146.71
1147.28
1148.34
1146.45
1146.72
1147.32
1148.4
1146.47
1146.77
1147.41
1148.52
1146.4
1146.74
1147.41
1148.53
1146.34
1146.63
1147.22
1148.29
1146.36
1146.67
1147.21
1148.17
1146.43
1146.69
1147.22
1148.22
1146.46
1146.74
1147.24
1148.15
1146.27
1146.58
1147.22
1148.33
1146.27
1146.61
1147.18
1148.17
1146.19
1146.54
1147.19
1148.3
1146.19
1146.55
1147.14
1148.12
1146.59
1146.78
1147.31
1148.33
1146.72
1146.89
1147.34
1148.23
1146.58
1146.78
1147.3
1148.31
1146.72
1146.89
1147.34
1148.22
1146.56
1146.77
1147.28
1148.26
1146.69
1146.88
1147.33
1148.2
1146.55
1146.78
1147.27
1148.19
1146.66
1146.87
1147.32
1148.17
1146.57
1146.82
1147.28
1148.12
1146.94
1147.07
1147.48
1148.11
1147.17
1147.29
1147.71
1148.31
1146.91
1147.06
1147.47
1148.1
1147.15
1147.28
1147.7
1148.3
1146.86
1147.03
1147.45
1148.09
1147.1
1147.26
1147.69
1148.29
1146.79
1146.99
1147.43
1148.07
1147.03
1147.22
1147.67
1148.27
1146.7
1146.94
1147.39
1148.04
1146.96
1147.18
1147.65
1148.26
1146.53
1146.85
1147.34
1148.02
1146.76
1147.07
1147.58
1148.21
1146.62
1146.9
1147.37
1148.03
1146.86
1147.13
1147.61
1148.23
1146.45
1146.8
1147.32
1148.01
1146.67
1147.02
1147.55
1148.19
1146.38
1146.75
1147.29
1147.98
1146.59
1146.97
1147.51
1148.16
1150.1
1151.43
1152.57
1153.49
1154.2
1150.19
1151.5
1152.63
1153.55
1154.26
1150.09
1151.43
1152.56
1153.49
1154.2
1150.17
1151.49
1152.62
1153.55
1154.26
1150.08
1151.42
1152.56
1153.48
1154.2
1150.11
1151.44
1152.58
1153.5
1154.21
1150.14
1151.47
1152.61
1153.54
1154.25
1150.13
1151.46
1152.6
1153.53
1154.24
1150.06
1151.41
1152.55
1153.48
1154.19
1150.13
1151.51
1152.66
1153.58
1154.29
1150.08
1151.44
1152.58
1153.5
1154.22
1150.15
1151.53
1152.68
1153.6
1154.31
1150.06
1151.41
1152.56
1153.48
1154.2
1150.14
1151.52
1152.67
1153.6
1154.31
1150.04
1151.4
1152.55
1153.47
1154.19
1150.14
1151.52
1152.67
1153.6
1154.31
1150.11
1151.46
1152.6
1153.52
1154.24
1150.21
1151.58
1152.72
1153.64
1154.35
1150.11
1151.47
1152.6
1153.53
1154.24
1150.21
1151.58
1152.72
1153.64
1154.35
1150.11
1151.48
1152.62
1153.54
1154.25
1150.21
1151.59
1152.73
1153.65
1154.36
1150.14
1151.52
1152.66
1153.59
1154.3
1150.23
1151.61
1152.75
1153.67
1154.38
1150.2
1151.58
1152.72
1153.65
1154.36
1155.96
1156.17
1155.86
1156.08
1155.68
1155.93
1155.45
1155.74
1155.23
1155.56
1154.88
1155.26
1155.06
1155.44
1154.7
1155.07
1154.51
1154.85
1158.36
1160.98
1163.19
1164.91
1166.08
1158.32
1160.96
1163.2
1164.93
1166.12
1158.31
1160.96
1163.18
1164.9
1166.08
1158.28
1160.95
1163.18
1164.92
1166.11
1158.22
1160.91
1163.14
1164.87
1166.05
1158.19
1160.9
1163.15
1164.9
1166.09
1158.11
1160.84
1163.1
1164.84
1166.02
1158.08
1160.83
1163.11
1164.87
1166.07
1157.97
1160.75
1163.03
1164.79
1165.98
1157.97
1160.76
1163.05
1164.83
1166.03
1157.67
1160.53
1162.87
1164.66
1165.87
1157.7
1160.56
1162.91
1164.71
1165.92
1157.82
1160.64
1162.96
1164.73
1165.93
1157.84
1160.67
1162.99
1164.77
1165.98
1157.52
1160.41
1162.78
1164.59
1165.8
1157.54
1160.43
1162.81
1164.62
1165.85
1157.36
1160.29
1162.68
1164.51
1165.73
1157.36
1160.3
1162.7
1164.54
1165.77
1147.37
1147.71
1148
1147.61
1148.11
1148.05
1148.04
1147.97
1148.15
1148.06
1148.61
1148.5
1148.85
1148.72
1148.51
1148.4
1148.37
1148.3
1148.34
1148.29
1147.63
1147.53
1148.53
1148.93
1149.06
1149.09
1148.73
1148.57
1149.04
1148.49
1149.44
1150.05
1148.58
1148.76
1149.23
1148.71
1148.92
1148.95
1148.18
1148.14
1148.39
1148.3
1148.18
1148.08
1148.19
1148.34
1148.86
1148.76
1148.57
1148.47
1147.79
1147.65
1147.88
1147.77
1147.92
1147.96
1148.23
1148.57
1148.22
1147.01
1146.69
1146.55
1146.57
1146.74
1147.08
1146.81
1146.7
1146.74
1146.96
1148.22
1148.08
1148.07
1148.19
1148.45
1148.63
1148.51
1148.5
1148.63
1148.9
1148.76
1148.63
1148.62
1148.74
1149.01
1148.8
1148.67
1148.67
1148.8
1149.07
1148.43
1148.29
1148.28
1148.4
1148.67
1147.9
1147.49
1147.27
1147.23
1147.35
1148.32
1147.88
1147.65
1147.6
1147.75
1148.01
1147.7
1147.54
1147.54
1147.75
1148.78
1148.35
1148.14
1148.12
1148.29
1149.4
1148.97
1148.75
1148.72
1148.9
1148.21
1147.99
1147.9
1147.97
1148.2
1148.32
1148.05
1147.91
1147.93
1148.15
1148.81
1148.54
1148.41
1148.44
1148.66
1148.36
1148.16
1148.1
1148.18
1148.42
1148.55
1148.33
1148.24
1148.31
1148.55
1148.61
1148.42
1148.36
1148.45
1148.69
1147.57
1147.22
1147.04
1147.02
1147.16
1147.72
1147.46
1147.34
1147.38
1147.6
1148.03
1147.83
1147.76
1147.84
1148.08
1147.96
1147.78
1147.72
1147.81
1148.06
1147.82
1147.6
1147.53
1147.6
1147.83
1147.74
1147.55
1147.49
1147.57
1147.82
1147.87
1147.71
1147.67
1147.78
1148.04
1148.02
1147.86
1147.83
1147.93
1148.19
1148.55
1148.39
1148.36
1148.46
1148.72
1148.45
1148.31
1148.29
1148.4
1148.66
1148.24
1148.07
1148.02
1148.11
1148.36
1148.15
1147.99
1147.95
1148.06
1148.31
1147.19
1146.86
1146.72
1146.72
1146.88
1147.22
1146.98
1146.87
1146.92
1147.14
1147.39
1147.1
1146.95
1146.97
1147.15
1147.39
1147.17
1147.09
1147.16
1147.39
1147.56
1147.36
1147.29
1147.38
1147.62
1147.55
1147.3
1147.19
1147.23
1147.45
1147.9
1147.73
1147.7
1147.8
1148.06
1148.26
1148.12
1148.09
1148.21
1148.47
1147.88
1147.71
1147.66
1147.76
1148.01
1147.6
1147.78
1147.61
1147.82
1147.14
1147.36
1147.14
1147.33
1147.63
1147.65
1147.83
1147.79
1147.15
1147.16
1147.35
1147.29
1148.08
1148.54
1148.24
1148.69
1148.08
1148.5
1148.27
1148.69
1148.28
1148.11
1148.18
1148.07
1148.44
1148.61
1148.07
1148.28
1147.98
1148.21
1147.61
1147.83
1147.48
1147.69
1148.52
1148.74
1148.38
1148.64
1148.86
1149.13
1148.97
1149.34
1149.1
1149.45
1148.94
1149.38
1149.1
1149.49
1148.86
1149.46
1148.98
1149.51
1149.2
1149.74
1149.52
1150.07
1147.8
1147.92
1147.89
1148.03
1147.2
1147.24
1147.3
1147.34
1148.46
1148.81
1148.38
1148.69
1148.05
1148.17
1148.24
1148.33
1147.45
1147.46
1147.63
1147.61
1148.61
1148.95
1148.83
1149.13
1149.05
1149.71
1149.61
1150.36
1148.99
1149.71
1149.51
1150.3
1149.2
1149.83
1149.74
1150.47
1149.42
1150.05
1149.93
1150.65
1149
1149.22
1149.41
1149.76
1148.97
1149.15
1149.48
1149.81
1148.91
1149
1149.59
1149.86
1147.78
1147.16
1148.38
1149.03
1149.85
1147.14
1147.73
1148.33
1149.01
1149.99
1147.19
1147.85
1148.62
1149.45
1150.31
1149.58
1149.74
1150.67
1150.99
1149.41
1149.57
1150.6
1150.92
1149.16
1149.29
1150.52
1150.84
1147.15
1147.23
1147.78
1147.88
1148.43
1148.53
1149.22
1149.35
1150.63
1150.97
1147.19
1147.28
1147.92
1148.13
1148.75
1149.02
1149.71
1150.04
1151
1151.42
1148.09
1148.46
1148.19
1148.57
1147.26
1147.29
1147.34
1147.35
1149.13
1149.67
1149.01
1149.52
1148.27
1148.71
1148.44
1148.91
1147.45
1147.48
1147.59
1147.64
1149.21
1149.83
1149.4
1150.05
1150.25
1150.95
1151.67
1152.56
1150.06
1150.74
1151.41
1152.25
1150.39
1151.12
1151.88
1152.81
1150.52
1151.3
1152
1152.91
1149.79
1149.93
1150.77
1150.79
1149.63
1149.78
1150.73
1150.73
1149.39
1149.61
1150.69
1150.7
1147.41
1147.72
1148.07
1148.36
1148.7
1148.95
1149.49
1149.72
1150.76
1150.75
1147.45
1147.79
1148.42
1148.73
1149.28
1149.5
1150.13
1150.23
1151.02
1150.94
1146.39
1146.38
1146.58
1146.5
1146.73
1146.71
1146.93
1146.85
1146.15
1145.98
1146.33
1146.16
1146.16
1146
1146.36
1146.18
1146.32
1146.15
1146.3
1146.17
1146.04
1146.19
1146.68
1146.9
1147.02
1147.23
1146.56
1146.8
1146.48
1146.7
1146.42
1146.64
1145.88
1145.81
1146.05
1145.97
1145.88
1145.79
1146.06
1145.96
1145.89
1145.78
1146.03
1145.89
1146.23
1146.07
1146.43
1146.23
1146.32
1146.3
1146.41
1146.37
1146.7
1146.69
1146.8
1146.77
1146.15
1146.09
1146.06
1146.04
1146.54
1146.46
1146.7
1146.58
1146.94
1146.88
1147.1
1147.02
1146.27
1146.17
1146.42
1146.28
1145.96
1145.83
1145.93
1145.86
1145.88
1145.78
1145.89
1145.83
1146.08
1145.92
1146
1145.91
1146.22
1146.03
1146.1
1145.99
1145.8
1145.83
1145.74
1145.79
1145.82
1145.85
1145.75
1145.8
1145.85
1145.88
1145.76
1145.81
1146.28
1146.66
1146.04
1145.87
1145.78
1146.66
1146.3
1146.06
1145.89
1145.82
1146.65
1146.28
1146.02
1145.88
1145.83
1145.95
1146.17
1145.94
1146.17
1145.95
1146.15
1145.93
1146.15
1145.96
1146.14
1145.91
1146.12
1146.66
1146.74
1146.3
1146.41
1146.08
1146.21
1145.94
1146.09
1145.9
1146.09
1146.63
1146.66
1146.26
1146.31
1146.03
1146.12
1145.92
1146.05
1145.9
1146.09
1146.25
1146.23
1146.32
1146.27
1146.63
1146.58
1146.72
1146.62
1146.09
1146.1
1146.02
1146.07
1146.44
1146.35
1146.56
1146.48
1146.85
1146.72
1146.98
1146.86
1146.19
1146.18
1146.29
1146.3
1145.97
1146.07
1145.97
1146.15
1145.92
1146.05
1145.93
1146.12
1146.04
1146.13
1146.04
1146.22
1146.14
1146.24
1146.12
1146.3
1146.43
1146.67
1146.51
1146.8
1146.4
1146.66
1146.48
1146.79
1146.37
1146.66
1146.44
1146.79
1146.92
1147.24
1146.6
1146.92
1146.42
1146.74
1146.32
1146.66
1146.41
1146.83
1146.8
1147.16
1146.47
1146.86
1146.33
1146.73
1146.31
1146.73
1146.45
1146.92
1145.94
1146.37
1147.09
1148.26
1146.09
1146.51
1147.24
1148.42
1145.93
1146.35
1147.07
1148.26
1146.08
1146.49
1147.21
1148.39
1145.93
1146.34
1147.03
1148.17
1146.01
1146.43
1147.12
1148.27
1146.17
1146.57
1147.28
1148.43
1146.3
1146.67
1147.36
1148.5
1145.97
1146.37
1147.04
1148.17
1146.04
1146.45
1147.05
1148.06
1145.94
1146.36
1146.99
1148.06
1146.02
1146.44
1147.03
1148
1146.03
1146.42
1147.1
1148.25
1146.07
1146.47
1147.08
1148.09
1146.11
1146.48
1147.15
1148.27
1146.12
1146.51
1147.11
1148.1
1145.89
1146.32
1147
1148.12
1145.96
1146.38
1147
1147.99
1145.9
1146.33
1147
1148.11
1145.98
1146.4
1147.01
1147.99
1145.93
1146.35
1146.99
1148.07
1146
1146.42
1147.02
1147.99
1145.97
1146.39
1147
1148.01
1146.02
1146.44
1147.03
1147.97
1146.03
1146.46
1147.03
1147.96
1146.12
1146.54
1147.12
1147.84
1146.33
1146.75
1147.34
1148.01
1146.12
1146.54
1147.12
1147.84
1146.33
1146.75
1147.34
1148.02
1146.12
1146.55
1147.12
1147.85
1146.34
1146.76
1147.35
1148.02
1146.13
1146.55
1147.13
1147.84
1146.34
1146.77
1147.36
1148.03
1146.14
1146.57
1147.13
1147.84
1146.35
1146.78
1147.37
1148.04
1146.2
1146.63
1147.19
1147.89
1146.39
1146.83
1147.4
1148.07
1146.17
1146.59
1147.16
1147.87
1146.36
1146.8
1147.38
1148.05
1146.26
1146.67
1147.22
1147.93
1146.45
1146.87
1147.44
1148.1
1146.31
1146.71
1147.26
1147.95
1146.51
1146.92
1147.48
1148.13
1149.99
1151.36
1152.52
1153.46
1154.18
1150.08
1151.43
1152.59
1153.52
1154.24
1149.99
1151.36
1152.52
1153.46
1154.18
1150.08
1151.43
1152.59
1153.52
1154.24
1149.98
1151.36
1152.52
1153.46
1154.18
1150.03
1151.39
1152.54
1153.48
1154.2
1150.09
1151.44
1152.59
1153.52
1154.24
1150.1
1151.45
1152.59
1153.52
1154.24
1149.99
1151.37
1152.53
1153.46
1154.18
1150.07
1151.47
1152.63
1153.57
1154.28
1149.99
1151.39
1152.55
1153.48
1154.2
1150.08
1151.49
1152.65
1153.58
1154.3
1150.01
1151.38
1152.54
1153.47
1154.19
1150.1
1151.5
1152.65
1153.58
1154.3
1150.02
1151.39
1152.54
1153.47
1154.19
1150.12
1151.51
1152.67
1153.6
1154.31
1149.99
1151.39
1152.55
1153.49
1154.21
1150.09
1151.51
1152.67
1153.61
1154.33
1150
1151.4
1152.56
1153.5
1154.22
1150.09
1151.51
1152.68
1153.61
1154.33
1150.01
1151.42
1152.58
1153.51
1154.23
1150.1
1151.52
1152.69
1153.62
1154.34
1150.05
1151.47
1152.63
1153.56
1154.28
1150.13
1151.55
1152.71
1153.65
1154.37
1150.12
1151.53
1152.69
1153.63
1154.34
1152.98
1153.23
1153.01
1153.27
1153.09
1153.36
1153.22
1153.48
1153.43
1153.65
1153.95
1154.24
1153.71
1153.97
1154.15
1154.47
1154.33
1154.66
1156.19
1159.44
1162.04
1163.99
1165.28
1156.12
1159.4
1162.03
1164
1165.32
1156.22
1159.46
1162.05
1164.01
1165.29
1156.16
1159.43
1162.05
1164.02
1165.33
1156.29
1159.5
1162.09
1164.03
1165.31
1156.22
1159.47
1162.08
1164.05
1165.35
1156.39
1159.57
1162.14
1164.07
1165.35
1156.31
1159.54
1162.13
1164.08
1165.38
1156.53
1159.67
1162.21
1164.12
1165.4
1156.43
1159.61
1162.18
1164.13
1165.42
1156.88
1159.91
1162.38
1164.27
1165.52
1156.81
1159.87
1162.37
1164.27
1165.54
1156.7
1159.78
1162.29
1164.19
1165.45
1156.61
1159.73
1162.26
1164.19
1165.47
1157.04
1160.04
1162.48
1164.34
1165.59
1157.01
1160.02
1162.48
1164.36
1165.61
1157.21
1160.17
1162.58
1164.43
1165.66
1157.19
1160.16
1162.59
1164.45
1165.69
1147.09
1147.42
1147.18
1146.84
1146.4
1146.58
1146.39
1146.61
1146.73
1146.95
1146.73
1146.92
1150.41
1150.35
1150.21
1149.98
1149.67
1149.3
1150.43
1150.38
1150.24
1150.03
1149.74
1149.41
1150.56
1150.78
1150.49
1150.7
1150.33
1150.52
1150.07
1150.22
1149.72
1149.84
1149.32
1149.44
1148.9
1148.52
1148.19
1147.93
1147.73
1147.58
1149.06
1148.71
1148.4
1148.14
1147.94
1147.8
1150.14
1150.03
1150.05
1150.2
1150.47
1150.08
1149.97
1149.99
1150.14
1150.41
1149.93
1149.83
1149.84
1149.99
1150.26
1149.7
1149.59
1149.61
1149.75
1150.02
1149.39
1149.27
1149.28
1149.43
1149.7
1149.01
1148.89
1148.9
1149.03
1149.3
1150.16
1150.05
1150.07
1150.22
1150.49
1150.11
1150
1150.02
1150.16
1150.43
1149.97
1149.86
1149.87
1150.02
1150.29
1149.75
1149.64
1149.65
1149.79
1150.06
1149.46
1149.35
1149.36
1149.5
1149.77
1149.13
1149
1149.01
1149.14
1149.41
1150.29
1150.18
1150.2
1150.34
1150.62
1150.51
1150.4
1150.42
1150.57
1150.84
1150.22
1150.11
1150.13
1150.28
1150.55
1150.43
1150.33
1150.35
1150.49
1150.76
1150.06
1149.95
1149.97
1150.11
1150.38
1150.25
1150.14
1150.16
1150.3
1150.57
1149.8
1149.68
1149.7
1149.84
1150.11
1149.95
1149.83
1149.85
1149.99
1150.26
1149.44
1149.33
1149.34
1149.48
1149.75
1149.56
1149.44
1149.45
1149.59
1149.86
1149.03
1148.91
1148.92
1149.05
1149.32
1149.16
1149.03
1149.04
1149.17
1149.44
1148.6
1148.47
1148.47
1148.6
1148.87
1148.21
1148.07
1148.06
1148.18
1148.44
1147.87
1147.71
1147.68
1147.79
1148.05
1147.58
1147.4
1147.35
1147.44
1147.69
1147.36
1147.15
1147.08
1147.16
1147.4
1147.19
1146.98
1146.9
1146.97
1147.21
1148.76
1148.63
1148.63
1148.76
1149.03
1148.41
1148.27
1148.26
1148.38
1148.64
1148.09
1147.94
1147.91
1148.02
1148.28
1147.82
1147.65
1147.61
1147.71
1147.97
1147.6
1147.42
1147.37
1147.46
1147.71
1147.45
1147.26
1147.2
1147.29
1147.54
1150.38
1150.26
1150.06
1149.77
1149.4
1148.96
1150.4
1150.29
1150.09
1149.82
1149.48
1149.09
1150.53
1150.75
1150.4
1150.61
1150.17
1150.36
1149.85
1149.99
1149.44
1149.54
1148.96
1149.06
1148.5
1148.08
1147.75
1147.54
1147.45
1147.48
1148.7
1148.33
1148.03
1147.83
1147.73
1147.73
1150.11
1150
1150.02
1150.17
1150.44
1149.99
1149.88
1149.9
1150.05
1150.32
1149.78
1149.68
1149.69
1149.84
1150.11
1149.49
1149.38
1149.4
1149.54
1149.82
1149.12
1149
1149.02
1149.16
1149.43
1148.68
1148.56
1148.57
1148.71
1148.98
1150.13
1150.02
1150.04
1150.19
1150.46
1150.02
1149.91
1149.93
1150.07
1150.34
1149.82
1149.71
1149.73
1149.87
1150.14
1149.54
1149.43
1149.45
1149.59
1149.86
1149.2
1149.09
1149.1
1149.24
1149.51
1148.81
1148.69
1148.7
1148.84
1149.11
1150.26
1150.15
1150.17
1150.31
1150.59
1150.48
1150.37
1150.39
1150.53
1150.81
1150.13
1150.02
1150.04
1150.18
1150.46
1150.34
1150.23
1150.25
1150.39
1150.66
1149.9
1149.79
1149.81
1149.96
1150.23
1150.08
1149.98
1149.99
1150.14
1150.41
1149.57
1149.46
1149.48
1149.63
1149.9
1149.71
1149.6
1149.62
1149.76
1150.04
1149.16
1149.04
1149.06
1149.2
1149.47
1149.26
1149.14
1149.16
1149.3
1149.57
1148.67
1148.56
1148.57
1148.71
1148.98
1148.77
1148.66
1148.67
1148.81
1149.08
1148.21
1148.09
1148.09
1148.23
1148.5
1147.78
1147.65
1147.64
1147.77
1148.04
1147.44
1147.29
1147.27
1147.39
1147.66
1147.2
1147.03
1146.99
1147.1
1147.36
1147.09
1146.9
1146.84
1146.93
1147.17
1147.1
1146.89
1146.81
1146.89
1147.13
1148.41
1148.28
1148.28
1148.42
1148.69
1148.03
1147.9
1147.89
1148.02
1148.29
1147.72
1147.58
1147.56
1147.68
1147.95
1147.51
1147.34
1147.31
1147.42
1147.68
1147.39
1147.21
1147.17
1147.27
1147.52
1147.38
1147.19
1147.13
1147.23
1147.48
1147.46
1147.4
1148.03
1148.5
1148.53
1148.64
1148.21
1147.18
1147.31
1147.22
1147.62
1147.56
1147.5
1147.79
1147.85
1148.03
1147.14
1147.17
1147.5
1147.53
1147.33
1147.39
1147.65
1147.71
1148.13
1148.13
1147.78
1147.77
1147.29
1147.29
1147.14
1147.26
1147.3
1147.16
1147.61
1147.99
1147.53
1146.85
1146.54
1146.42
1146.44
1146.62
1146.95
1146.69
1146.58
1146.63
1146.86
1147.73
1147.6
1147.6
1147.73
1148
1148.21
1148.09
1148.09
1148.23
1148.5
1148.24
1148.11
1148.11
1148.25
1148.52
1148.35
1148.23
1148.23
1148.37
1148.64
1147.91
1147.78
1147.78
1147.92
1148.19
1146.64
1146.36
1146.25
1146.29
1146.47
1146.79
1146.53
1146.43
1146.48
1146.67
1146.83
1146.61
1146.53
1146.6
1146.84
1147.15
1146.92
1146.84
1146.91
1147.14
1147.23
1147.06
1147.02
1147.13
1147.39
1147.14
1146.94
1146.89
1146.98
1147.23
1147.47
1147.32
1147.29
1147.41
1147.67
1147.53
1147.36
1147.33
1147.44
1147.7
1147.71
1147.57
1147.55
1147.66
1147.93
1146.62
1146.35
1146.24
1146.28
1146.47
1146.8
1146.59
1146.53
1146.61
1146.85
1147.18
1147.01
1146.98
1147.09
1147.35
1147.21
1147.06
1147.04
1147.15
1147.42
1147
1146.82
1146.78
1146.89
1147.14
1147.06
1146.9
1146.87
1146.97
1147.24
1147.33
1147.18
1147.17
1147.29
1147.55
1147.4
1147.26
1147.24
1147.37
1147.63
1147.83
1147.69
1147.68
1147.81
1148.07
1147.83
1147.7
1147.69
1147.83
1148.1
1147.46
1147.32
1147.3
1147.42
1147.69
1147.47
1147.32
1147.31
1147.43
1147.7
1146.72
1146.44
1146.32
1146.35
1146.54
1146.87
1146.64
1146.55
1146.62
1146.85
1146.68
1146.44
1146.34
1146.4
1146.61
1146.89
1146.7
1146.64
1146.72
1146.97
1146.96
1146.79
1146.74
1146.84
1147.1
1146.79
1146.58
1146.51
1146.59
1146.83
1147.3
1147.15
1147.13
1147.25
1147.52
1147.69
1147.55
1147.55
1147.68
1147.95
1147.21
1147.05
1147.03
1147.15
1147.41
1147.67
1147.41
1147.31
1147.35
1147.52
1147.86
1147.54
1147.56
1147.07
1147.06
1147.58
1147.62
1147.09
1147.11
1148.04
1148.56
1148.04
1148.51
1148.09
1148.06
1148.42
1147.52
1147.55
1147.06
1147.04
1147.57
1147.61
1147.07
1147.1
1148.06
1148.61
1148.07
1148.55
1148.11
1148.07
1148.46
1147.53
1147.56
1147.05
1147.04
1147.58
1147.62
1147.07
1147.11
1148.09
1148.75
1148.09
1148.67
1148.14
1148.1
1148.56
1147.63
1147.65
1147.14
1147.12
1147.68
1147.73
1147.16
1147.19
1148.22
1148.92
1148.22
1148.83
1148.25
1148.21
1148.7
1147.79
1147.82
1147.3
1147.29
1147.84
1147.9
1147.33
1147.36
1148.39
1149.04
1148.38
1148.98
1148.41
1148.38
1148.85
1148.09
1148.11
1147.61
1147.6
1148.13
1148.18
1147.63
1147.66
1148.65
1149.26
1148.64
1149.19
1148.67
1148.63
1149.06
1146.33
1146.32
1146.66
1146.66
1146.33
1146.34
1146.67
1146.68
1146.08
1145.9
1146.1
1145.93
1146.1
1146.13
1145.98
1146.3
1146.3
1146.64
1146.63
1146.32
1146.33
1146.65
1146.67
1146.05
1145.9
1146.07
1145.93
1146.09
1146.13
1145.99
1146.29
1146.3
1146.63
1146.62
1146.32
1146.34
1146.65
1146.67
1146.07
1145.97
1146.09
1146
1146.12
1146.16
1146.05
1146.38
1146.39
1146.71
1146.7
1146.41
1146.44
1146.74
1146.76
1146.17
1146.12
1146.2
1146.15
1146.24
1146.29
1146.2
1146.55
1146.57
1146.89
1146.87
1146.6
1146.64
1146.91
1146.93
1146.37
1146.35
1146.4
1146.37
1146.44
1146.5
1146.41
1146.88
1146.89
1147.2
1147.19
1146.92
1146.96
1147.22
1147.25
1146.7
1146.64
1146.72
1146.67
1146.76
1146.81
1146.71
1150.28
1150.19
1150.03
1149.9
1149.68
1149.54
1149.18
1149.07
1149.28
1149.15
1149.67
1149.54
1149.95
1149.82
1150.17
1150.08
1149.57
1149.4
1149.34
1149.1
1148.97
1148.75
1148.76
1148.47
1150.58
1151.09
1150.5
1150.97
1150.36
1150.84
1150.21
1150.67
1149.85
1150.12
1149.61
1149.95
1150.55
1150.26
1149.05
1148.62
1148.81
1148.5
1148.5
1148.14
1148.22
1147.95
1149.56
1149.12
1149.31
1148.97
1149.97
1149.54
1151.68
1152.02
1151.44
1151.8
1151.43
1151.86
1151.14
1151.54
1151.07
1151.66
1150.63
1151.18
1150.29
1150.83
1149.91
1150.46
1149.44
1149.37
1149.07
1149.04
1148.65
1148.55
1148.36
1148.26
1149.76
1149.87
1150.2
1150.22
1148.76
1148.76
1148.47
1148.53
1148.09
1148.01
1147.84
1147.8
1149.41
1149.58
1149.09
1149.34
1150.44
1151.1
1150.69
1151.43
1150.91
1151.59
1151.06
1151.83
1150.05
1150.69
1150.39
1151.12
1149.71
1150.34
1150.15
1150.86
1152.5
1153.26
1152.63
1153.38
1152.27
1152.97
1152.5
1153.22
1151.88
1152.43
1152.29
1152.88
1149.97
1149.03
1150.82
1151.46
1152.15
1149.16
1150.15
1151.17
1151.85
1152.6
1148.92
1149.8
1150.66
1151.47
1152.26
1153.97
1154.31
1154.35
1154.65
1153.6
1153.99
1154.1
1154.43
1152.98
1153.43
1153.69
1154.09
1149.38
1149.73
1150.46
1150.95
1151.46
1151.96
1152.26
1152.75
1153.31
1153.81
1149.08
1149.37
1150.07
1150.58
1151
1151.58
1151.92
1152.55
1153.09
1153.74
1149.62
1150.18
1149.21
1149.71
1148.64
1148.81
1148.28
1148.37
1150.19
1150.86
1150.59
1151.3
1148.86
1149.36
1148.63
1149.12
1147.98
1148.07
1147.77
1147.83
1149.83
1150.51
1149.6
1150.27
1151.31
1152.12
1152.69
1153.68
1151.63
1152.49
1152.91
1153.88
1151.01
1151.8
1152.49
1153.46
1150.73
1151.53
1152.19
1153.11
1154.41
1154.55
1154.82
1154.47
1154.53
1154.78
1154.17
1154.35
1154.64
1154.3
1154.37
1154.64
1153.7
1153.94
1154.27
1154.04
1154.15
1154.45
1150.17
1150.67
1151.2
1151.46
1151.9
1152.36
1152.44
1152.81
1153.22
1153.14
1153.45
1153.84
1153.83
1153.99
1154.35
1149.77
1150.33
1150.93
1151.25
1151.83
1152.43
1152.26
1152.77
1153.3
1153.07
1153.45
1153.92
1153.82
1154.02
1154.44
1147.9
1147.72
1147.74
1147.51
1148.39
1148.16
1148.2
1147.93
1147.81
1147.43
1147.77
1147.42
1147.7
1147.36
1147.62
1147.3
1147.36
1147.52
1147.27
1147.45
1147.29
1147.17
1147.33
1147.12
1147.71
1147.47
1147.26
1147.06
1147.12
1146.93
1147.09
1146.9
1147.05
1146.72
1147.12
1146.8
1147
1146.66
1147.02
1146.7
1146.96
1146.58
1146.87
1146.53
1146.81
1146.5
1146.64
1146.39
1147.48
1147.32
1147.28
1147.1
1147.99
1147.85
1147.75
1147.6
1146.95
1146.74
1147.13
1146.93
1147.07
1146.9
1146.87
1146.73
1147.52
1147.38
1147.29
1147.18
1146.77
1146.56
1146.59
1146.41
1146.67
1146.37
1146.5
1146.32
1146.82
1146.5
1146.67
1146.46
1146.53
1146.26
1146.35
1146.19
1146.37
1146.14
1146.21
1146.08
1147.06
1147.22
1146.75
1146.92
1147.05
1147.22
1146.72
1146.9
1147.05
1147.2
1146.69
1146.84
1147.63
1148.23
1147.26
1146.96
1146.64
1148.35
1147.76
1147.41
1147.12
1146.78
1148.12
1147.54
1147.12
1146.84
1146.61
1147.5
1147.88
1147.2
1147.57
1147.48
1147.84
1147.15
1147.51
1147.42
1147.77
1147.07
1147.4
1148.51
1148.8
1147.88
1148.18
1147.52
1147.83
1147.25
1147.56
1146.93
1147.25
1148.22
1148.39
1147.62
1147.79
1147.21
1147.42
1146.95
1147.21
1146.75
1147.07
1147.29
1147.35
1147.06
1147.05
1147.83
1147.87
1147.55
1147.51
1146.74
1146.81
1146.94
1147.07
1146.88
1146.82
1146.71
1146.63
1147.34
1147.25
1147.14
1147.03
1146.58
1146.61
1146.42
1146.44
1146.54
1146.7
1146.44
1146.7
1146.72
1146.93
1146.59
1146.88
1146.39
1146.51
1146.32
1146.55
1146.26
1146.37
1146.21
1146.41
1148.41
1148.92
1149.41
1148.22
1148.8
1149.29
1148.33
1148.86
1149.36
1148.13
1148.72
1149.23
1148.23
1148.75
1149.25
1147.99
1148.61
1149.16
1149.2
1149.7
1150.24
1148.59
1149.11
1149.66
1148.25
1148.79
1149.35
1148
1148.54
1149.09
1147.84
1148.49
1149.09
1148.71
1149.25
1149.86
1148.13
1148.68
1149.29
1147.81
1148.39
1149.02
1147.66
1148.28
1148.92
1147.69
1148.38
1149.03
1146.57
1146.79
1147.38
1148.46
1146.67
1146.91
1147.51
1148.6
1146.53
1146.76
1147.34
1148.43
1146.59
1146.84
1147.45
1148.55
1146.47
1146.71
1147.28
1148.34
1146.45
1146.72
1147.32
1148.4
1146.47
1146.77
1147.41
1148.52
1146.4
1146.74
1147.41
1148.53
1146.34
1146.63
1147.22
1148.29
1146.36
1146.67
1147.21
1148.17
1146.43
1146.69
1147.22
1148.22
1146.46
1146.74
1147.24
1148.15
1146.27
1146.58
1147.22
1148.33
1146.27
1146.61
1147.18
1148.17
1146.19
1146.54
1147.19
1148.3
1146.19
1146.55
1147.14
1148.12
1146.59
1146.78
1147.31
1148.33
1146.72
1146.89
1147.34
1148.23
1146.58
1146.78
1147.3
1148.31
1146.72
1146.89
1147.34
1148.22
1146.56
1146.77
1147.28
1148.26
1146.69
1146.88
1147.33
1148.2
1146.55
1146.78
1147.27
1148.19
1146.66
1146.87
1147.32
1148.17
1146.57
1146.82
1147.28
1148.12
1146.94
1147.07
1147.48
1148.11
1147.17
1147.29
1147.71
1148.3
1146.91
1147.06
1147.47
1148.1
1147.15
1147.28
1147.7
1148.3
1146.86
1147.03
1147.45
1148.09
1147.1
1147.26
1147.69
1148.29
1146.79
1146.99
1147.43
1148.07
1147.03
1147.22
1147.67
1148.27
1146.7
1146.94
1147.39
1148.04
1146.96
1147.18
1147.65
1148.26
1146.53
1146.85
1147.34
1148.02
1146.76
1147.07
1147.58
1148.21
1146.62
1146.9
1147.37
1148.03
1146.86
1147.13
1147.61
1148.23
1146.45
1146.8
1147.32
1148.01
1146.67
1147.02
1147.55
1148.19
1146.38
1146.75
1147.29
1147.98
1146.59
1146.97
1147.51
1148.16
1150.1
1151.43
1152.57
1153.49
1154.2
1150.19
1151.5
1152.63
1153.55
1154.27
1150.09
1151.43
1152.56
1153.49
1154.2
1150.17
1151.49
1152.62
1153.55
1154.26
1150.08
1151.42
1152.56
1153.48
1154.2
1150.11
1151.44
1152.58
1153.5
1154.21
1150.14
1151.47
1152.61
1153.54
1154.25
1150.13
1151.46
1152.6
1153.53
1154.24
1150.06
1151.41
1152.55
1153.48
1154.19
1150.13
1151.51
1152.66
1153.58
1154.29
1150.08
1151.44
1152.58
1153.5
1154.22
1150.15
1151.53
1152.68
1153.6
1154.31
1150.06
1151.41
1152.56
1153.48
1154.2
1150.14
1151.52
1152.67
1153.6
1154.31
1150.04
1151.4
1152.55
1153.47
1154.19
1150.13
1151.52
1152.67
1153.6
1154.31
1150.11
1151.46
1152.6
1153.52
1154.23
1150.21
1151.58
1152.72
1153.64
1154.35
1150.11
1151.47
1152.6
1153.53
1154.24
1150.21
1151.58
1152.72
1153.64
1154.35
1150.11
1151.48
1152.62
1153.54
1154.25
1150.21
1151.59
1152.73
1153.65
1154.36
1150.14
1151.52
1152.66
1153.59
1154.3
1150.23
1151.61
1152.75
1153.67
1154.38
1150.2
1151.58
1152.72
1153.65
1154.36
1155.96
1156.18
1155.86
1156.08
1155.68
1155.93
1155.45
1155.74
1155.23
1155.57
1154.88
1155.26
1155.06
1155.44
1154.7
1155.07
1154.51
1154.85
1158.36
1160.98
1163.19
1164.91
1166.09
1158.32
1160.96
1163.2
1164.93
1166.12
1158.31
1160.96
1163.18
1164.9
1166.08
1158.28
1160.95
1163.18
1164.92
1166.11
1158.22
1160.91
1163.14
1164.88
1166.05
1158.19
1160.9
1163.15
1164.9
1166.09
1158.11
1160.84
1163.1
1164.84
1166.02
1158.08
1160.83
1163.11
1164.87
1166.07
1157.97
1160.75
1163.03
1164.79
1165.98
1157.97
1160.76
1163.05
1164.83
1166.03
1157.67
1160.53
1162.87
1164.66
1165.87
1157.7
1160.56
1162.91
1164.71