/*--------------------------------*- C++ -*----------------------------------*\
  =========                 |
  \\      /  F ield         | OpenFOAM: The Open Source CFD Toolbox
   \\    /   O peration     | Website:  https://openfoam.org
    \\  /    A nd           | Version:  12
     \\/     M anipulation  |
\*---------------------------------------------------------------------------*/
FoamFile
{
    format      ascii;
    class       volScalarField;
    location    "315";
    object      T;
}
// * * * * * * * * * * * * * * * * * * * * * * * * * * * * * * * * * * * * * //

dimensions      [];

internalField   nonuniform List<scalar> 
4480
(
3.49431e-08
3.41506e-06
0.00166486
0.0266773
0.0946528
0.186593
0.28184
0.369471
0.445532
0.509608
0.562771
0.606551
0.642475
0.671905
0.69598
0.715633
0.731616
0.744534
0.754866
0.762997
0.769241
0.773845
0.777012
0.7789
0.779644
0.779351
0.778111
0.776357
0.774581
0.772772
0.770925
0.769028
0.76707
0.765042
0.762934
0.760737
0.758439
0.75603
0.753495
0.750827
0.748014
0.745036
0.741883
0.738542
0.734996
0.731228
0.727221
0.722961
0.718425
0.713592
0.708449
0.702976
0.697144
0.690935
0.684328
0.677295
0.669819
0.661877
0.653436
0.644478
0.634972
0.624894
0.614214
0.602907
0.590933
0.578268
0.564861
0.550683
0.535668
0.519774
0.502924
0.485053
0.466085
0.445952
0.424598
0.401994
0.378157
0.353158
0.32714
0.300322
0.272998
0.24553
0.218323
0.191941
0.166825
0.143345
0.121802
0.102407
0.0852741
0.070421
0.05778
0.0472128
0.0385302
0.0315121
0.0259264
0.0215446
0.0181543
0.0155664
0.0136201
0.0121839
0.0111543
0.0104539
0.010028
0.00984258
0.00988063
0.0101413
0.0106391
0.0114042
0.0124847
0.0139499
0.0158952
0.0184492
0.0217823
0.0261176
0.0317421
0.03902
0.0484014
0.06043
0.0757494
0.095161
0.119893
0.152186
0.195811
0.259054
0.37183
0.562297
0.720201
0.861482
0.835239
0.625208
0.460682
0.278807
0.159752
0.0914683
0.0491464
0.0237486
0.00972557
0.00300643
0.000556937
3.21558e-05
1.71934e-08
0.00017763
0.0178335
0.116701
0.267708
0.41554
0.537703
0.631789
0.702308
0.754855
0.794211
0.823993
0.846815
0.864514
0.878376
0.889321
0.897999
0.904883
0.910321
0.914578
0.91785
0.920285
0.922002
0.92309
0.923621
0.923648
0.923216
0.922193
0.920515
0.918244
0.91544
0.912164
0.908474
0.904421
0.900053
0.895417
0.890552
0.885495
0.88027
0.874908
0.869429
0.863849
0.858177
0.852426
0.846601
0.8407
0.834725
0.828672
0.822532
0.8163
0.809964
0.803518
0.796943
0.790228
0.78336
0.77632
0.769101
0.76168
0.754043
0.746179
0.738064
0.729692
0.721038
0.712093
0.702839
0.693266
0.683348
0.673071
0.662421
0.651378
0.639916
0.628016
0.615648
0.602788
0.589397
0.575452
0.560915
0.54575
0.529937
0.513437
0.496227
0.478298
0.45963
0.440277
0.420302
0.399761
0.378745
0.357374
0.335791
0.314171
0.292707
0.271605
0.251083
0.231355
0.212623
0.195068
0.178848
0.164083
0.150866
0.139251
0.129266
0.120909
0.114166
0.109011
0.105424
0.103391
0.102921
0.104052
0.10686
0.111465
0.118041
0.126816
0.138082
0.152191
0.169554
0.190638
0.21595
0.246036
0.281487
0.323006
0.371551
0.42849
0.495455
0.573989
0.664399
0.759893
0.844558
0.906108
0.877338
0.732512
0.587073
0.444454
0.316986
0.211603
0.129832
0.0711269
0.0331126
0.0119469
0.00276393
0.000252906
4.36903e-06
0.00250968
0.0756524
0.264414
0.459789
0.61064
0.715289
0.785542
0.832821
0.865323
0.888358
0.905246
0.918007
0.927895
0.935691
0.941912
0.946903
0.950909
0.954112
0.956647
0.958623
0.960118
0.961202
0.961925
0.962328
0.962441
0.962291
0.961834
0.961024
0.959872
0.958389
0.956574
0.954437
0.951976
0.949205
0.946127
0.94276
0.939115
0.935209
0.931058
0.926683
0.922098
0.917326
0.91238
0.907276
0.902034
0.89666
0.891169
0.885567
0.879865
0.874068
0.868179
0.862198
0.856127
0.849968
0.843713
0.837367
0.83092
0.824369
0.81771
0.810937
0.804047
0.797029
0.789884
0.782601
0.775175
0.767601
0.759872
0.751978
0.74392
0.735678
0.727257
0.718641
0.709824
0.700789
0.691533
0.682043
0.672301
0.662297
0.65202
0.641447
0.630571
0.619366
0.607819
0.595923
0.583673
0.571058
0.558071
0.544711
0.530995
0.516943
0.502594
0.488002
0.473235
0.458387
0.443572
0.428918
0.414579
0.400724
0.387538
0.375214
0.363956
0.353976
0.34548
0.338683
0.333792
0.331012
0.330549
0.332614
0.337408
0.345143
0.356026
0.370264
0.388051
0.409561
0.434929
0.464252
0.497557
0.534813
0.575924
0.620713
0.668846
0.719617
0.771645
0.822616
0.869025
0.906345
0.929203
0.907562
0.810476
0.700426
0.580418
0.4557
0.334194
0.224631
0.134551
0.0686341
0.0274672
0.0073152
0.00084347
0.000109397
0.015939
0.190338
0.439674
0.630952
0.751867
0.824388
0.868298
0.896055
0.914731
0.928171
0.938421
0.946558
0.953158
0.958561
0.96299
0.966612
0.969552
0.971919
0.9738
0.97527
0.97639
0.977212
0.97778
0.978123
0.978266
0.978231
0.978002
0.977565
0.976925
0.976083
0.975036
0.973781
0.972311
0.97062
0.968703
0.966559
0.964179
0.961569
0.958728
0.955663
0.952378
0.948882
0.945186
0.941299
0.937237
0.933008
0.928627
0.924104
0.919454
0.914686
0.90981
0.904837
0.899772
0.894626
0.889405
0.884113
0.878752
0.873331
0.867848
0.86231
0.85671
0.851059
0.845354
0.83959
0.833772
0.827901
0.821969
0.815982
0.809931
0.803818
0.797642
0.791396
0.785081
0.778691
0.772222
0.765674
0.759045
0.752324
0.745509
0.738599
0.731593
0.724487
0.717253
0.709908
0.70245
0.694875
0.687186
0.679381
0.671465
0.663443
0.655332
0.647148
0.638912
0.630665
0.622442
0.614306
0.606317
0.598563
0.591144
0.584176
0.577791
0.572142
0.567395
0.563736
0.561352
0.560453
0.561238
0.563914
0.568675
0.575703
0.58515
0.597138
0.611747
0.628995
0.648843
0.671185
0.695832
0.722516
0.750882
0.780469
0.810665
0.840655
0.869351
0.89538
0.917068
0.932326
0.938306
0.922773
0.858479
0.778582
0.683363
0.572356
0.449702
0.324414
0.208528
0.114129
0.049097
0.0141899
0.00183716
0.00108245
0.0588729
0.348284
0.607182
0.759859
0.84101
0.884665
0.909854
0.925981
0.93758
0.946742
0.954371
0.960822
0.966257
0.970784
0.974501
0.977519
0.979934
0.98184
0.983323
0.984458
0.985305
0.985919
0.986338
0.986599
0.986722
0.986726
0.986604
0.98634
0.985937
0.985395
0.984716
0.983898
0.982935
0.981822
0.980554
0.97912
0.97752
0.975743
0.973789
0.97165
0.969331
0.966826
0.964143
0.961282
0.958251
0.955059
0.95171
0.948216
0.944586
0.940832
0.936963
0.932991
0.928924
0.924776
0.920555
0.916269
0.911924
0.907533
0.903099
0.898628
0.894127
0.889603
0.885059
0.880493
0.875917
0.871327
0.866724
0.862115
0.857497
0.852871
0.848234
0.843592
0.838939
0.834279
0.829606
0.824925
0.820228
0.815515
0.810792
0.806053
0.801298
0.796533
0.791735
0.786921
0.782091
0.777249
0.772397
0.767546
0.762703
0.757879
0.753085
0.748343
0.743669
0.739089
0.734632
0.730337
0.726246
0.722406
0.718881
0.715731
0.713036
0.710885
0.709373
0.708601
0.708687
0.709744
0.711891
0.715248
0.719929
0.726024
0.733618
0.742757
0.753464
0.765715
0.779434
0.794508
0.810755
0.827942
0.845764
0.863844
0.881719
0.89881
0.914408
0.927653
0.937499
0.942577
0.940923
0.92805
0.884996
0.826325
0.753537
0.661714
0.549078
0.420226
0.286937
0.166654
0.0758241
0.0230828
0.00316323
0.00597731
0.148604
0.519535
0.740354
0.842937
0.890724
0.915389
0.930232
0.940819
0.949513
0.957204
0.964039
0.969959
0.974936
0.979003
0.982254
0.984799
0.986752
0.988222
0.989302
0.990075
0.990614
0.990976
0.991205
0.991334
0.991389
0.991382
0.991318
0.991154
0.990896
0.990545
0.990097
0.989552
0.988905
0.988151
0.987285
0.986301
0.985193
0.983954
0.982581
0.981068
0.979409
0.977603
0.97565
0.973549
0.9713
0.968908
0.966376
0.963713
0.960922
0.958013
0.954995
0.951878
0.948669
0.945379
0.942019
0.938599
0.935126
0.931607
0.928056
0.924481
0.920883
0.917275
0.913659
0.910041
0.906429
0.902822
0.899226
0.895647
0.892079
0.888529
0.884996
0.881484
0.877992
0.874516
0.871061
0.867622
0.864205
0.860806
0.857423
0.854058
0.850717
0.847396
0.844086
0.840785
0.837506
0.834253
0.831027
0.827836
0.824689
0.821599
0.818575
0.815631
0.812785
0.810058
0.807473
0.805057
0.802842
0.800859
0.799148
0.797757
0.796729
0.796122
0.795993
0.796399
0.79741
0.799084
0.801495
0.804698
0.80875
0.8137
0.819575
0.82639
0.834138
0.842783
0.852254
0.862454
0.873237
0.884425
0.895782
0.907023
0.9178
0.927687
0.936168
0.942622
0.946266
0.946071
0.940594
0.927742
0.898422
0.853246
0.797319
0.724235
0.627305
0.504693
0.363437
0.222539
0.106202
0.033592
0.0047514
0.0221108
0.285518
0.672755
0.829431
0.889458
0.916135
0.930792
0.940871
0.949253
0.957055
0.964466
0.971168
0.976871
0.981499
0.985125
0.987885
0.989917
0.991358
0.99233
0.992943
0.993292
0.993456
0.993502
0.993484
0.993434
0.993379
0.993328
0.993288
0.993197
0.993056
0.992861
0.992607
0.992288
0.9919
0.991435
0.990884
0.990244
0.989508
0.98867
0.987726
0.986668
0.985493
0.984201
0.982785
0.981248
0.979586
0.977801
0.975895
0.973875
0.971742
0.969502
0.967166
0.964736
0.962221
0.959633
0.95698
0.954266
0.951508
0.94871
0.945881
0.94303
0.940163
0.93729
0.934414
0.931547
0.928689
0.925844
0.92302
0.920216
0.917439
0.914687
0.911965
0.909269
0.906608
0.903976
0.901374
0.898802
0.89626
0.893752
0.891277
0.888828
0.886415
0.884038
0.881677
0.879347
0.877047
0.874781
0.872552
0.870368
0.868236
0.86616
0.864153
0.86223
0.860395
0.858673
0.857072
0.855621
0.854336
0.853242
0.852371
0.851747
0.851409
0.851388
0.851721
0.852448
0.853607
0.855236
0.857374
0.860051
0.8633
0.867134
0.871568
0.876598
0.882205
0.888347
0.89496
0.90196
0.909233
0.916626
0.923953
0.930984
0.937439
0.942983
0.947212
0.949624
0.949601
0.946336
0.938735
0.925348
0.903399
0.867587
0.8228
0.764587
0.683956
0.57342
0.432617
0.277893
0.13849
0.0452825
0.00656764
0.061678
0.448864
0.785665
0.879842
0.913088
0.929039
0.939146
0.947262
0.954926
0.962681
0.970273
0.976994
0.982463
0.986668
0.989772
0.991967
0.993423
0.994287
0.994692
0.994761
0.994603
0.994313
0.993975
0.993644
0.993364
0.993158
0.993038
0.992999
0.992968
0.992936
0.992895
0.992832
0.992739
0.992604
0.992416
0.992166
0.991843
0.991443
0.990959
0.99038
0.989708
0.988934
0.988056
0.987072
0.985979
0.984782
0.983477
0.982065
0.98055
0.978938
0.97723
0.975432
0.973552
0.971597
0.969571
0.967485
0.965347
0.963165
0.960946
0.9587
0.956435
0.954153
0.951869
0.949585
0.947304
0.945039
0.942789
0.940561
0.938354
0.936175
0.934026
0.93191
0.929822
0.927771
0.925749
0.923762
0.921811
0.919892
0.91801
0.916161
0.914344
0.912567
0.910823
0.909111
0.907423
0.905768
0.904146
0.90256
0.901017
0.899525
0.89808
0.896699
0.895389
0.894154
0.893009
0.89197
0.891046
0.890258
0.889619
0.889153
0.888874
0.888815
0.888987
0.889425
0.89015
0.891184
0.892556
0.894281
0.896384
0.898873
0.901761
0.90504
0.908701
0.912723
0.917061
0.92166
0.926442
0.931306
0.936123
0.940739
0.944954
0.948543
0.951221
0.952654
0.952428
0.950034
0.944818
0.935943
0.922352
0.902848
0.874704
0.836828
0.78889
0.721959
0.625298
0.490908
0.329284
0.170905
0.0577354
0.00861046
0.14119
0.605201
0.852057
0.9049
0.92512
0.936252
0.944336
0.951659
0.959233
0.967299
0.975229
0.981937
0.987047
0.990718
0.993224
0.994804
0.995629
0.995847
0.995598
0.995021
0.994251
0.993409
0.992591
0.991872
0.991302
0.990907
0.990694
0.990648
0.990673
0.990758
0.990884
0.991033
0.991186
0.991329
0.991442
0.991509
0.991521
0.991463
0.991326
0.991109
0.990798
0.990396
0.989894
0.989293
0.988592
0.98779
0.986887
0.985888
0.984794
0.983608
0.982336
0.98098
0.979548
0.978046
0.976478
0.974856
0.973182
0.971467
0.969717
0.967941
0.966146
0.964338
0.962522
0.960708
0.9589
0.957101
0.955319
0.953555
0.951813
0.950098
0.94841
0.946751
0.945122
0.943522
0.941958
0.940425
0.938924
0.937458
0.936023
0.934622
0.93325
0.931917
0.930615
0.929348
0.928099
0.92688
0.925694
0.92454
0.923423
0.922343
0.921311
0.920326
0.919401
0.918537
0.917746
0.917037
0.91642
0.915902
0.915504
0.915233
0.915109
0.915141
0.91535
0.91575
0.916359
0.91719
0.918262
0.919582
0.921161
0.923003
0.925112
0.927473
0.930077
0.932893
0.935883
0.938991
0.942152
0.94527
0.948234
0.950907
0.953121
0.954679
0.955336
0.954805
0.952741
0.948711
0.942182
0.932482
0.918812
0.900288
0.876072
0.844018
0.802629
0.745704
0.661779
0.536865
0.374232
0.201884
0.0705887
0.0109012
0.27034
0.726776
0.881441
0.91733
0.932007
0.94084
0.947915
0.954946
0.962706
0.97126
0.979579
0.986147
0.990754
0.993803
0.995682
0.996616
0.996756
0.996233
0.995205
0.993842
0.992316
0.990783
0.98937
0.988172
0.987247
0.986622
0.986299
0.986239
0.986333
0.986557
0.986884
0.987285
0.987731
0.988196
0.988654
0.989084
0.989467
0.989787
0.990032
0.990192
0.990262
0.990234
0.990105
0.989874
0.989542
0.989111
0.988578
0.987948
0.987224
0.986412
0.98551
0.98453
0.983476
0.982352
0.981168
0.979931
0.978641
0.977313
0.97595
0.974556
0.973146
0.971721
0.970288
0.968852
0.96742
0.965995
0.964584
0.963189
0.961811
0.960457
0.959123
0.957818
0.956539
0.955289
0.954066
0.952871
0.951708
0.950571
0.949466
0.948387
0.94734
0.946323
0.945333
0.944376
0.943435
0.942522
0.941633
0.940771
0.939939
0.939141
0.938378
0.937655
0.936975
0.936349
0.935776
0.935267
0.934824
0.934462
0.934188
0.934006
0.933935
0.933978
0.934148
0.934459
0.934917
0.935534
0.936315
0.937266
0.938396
0.939698
0.941169
0.942796
0.944563
0.946441
0.948391
0.950361
0.952286
0.954084
0.955655
0.956874
0.957597
0.957643
0.956805
0.954831
0.951425
0.946211
0.938748
0.928479
0.914769
0.896912
0.874209
0.845865
0.80972
0.759454
0.68564
0.5708
0.411393
0.230249
0.08356
0.0134777
0.402367
0.801967
0.900223
0.924755
0.936436
0.943997
0.95051
0.95748
0.965571
0.974716
0.983417
0.989691
0.993669
0.996067
0.997318
0.997585
0.996953
0.99555
0.993562
0.991218
0.988745
0.98635
0.984201
0.982418
0.981065
0.980175
0.979737
0.979668
0.979855
0.98026
0.980843
0.981558
0.982365
0.983223
0.984097
0.984955
0.985771
0.986525
0.987202
0.987784
0.988268
0.988645
0.988911
0.989064
0.989106
0.989038
0.988864
0.988586
0.988209
0.987738
0.987177
0.986534
0.985816
0.985025
0.984171
0.983259
0.982299
0.981297
0.980256
0.979188
0.978096
0.976987
0.975868
0.974743
0.973618
0.972496
0.971384
0.97028
0.969195
0.968123
0.967074
0.966046
0.965038
0.964054
0.963092
0.962158
0.961246
0.96036
0.959498
0.958658
0.957844
0.957059
0.956293
0.955556
0.954838
0.954136
0.953454
0.952795
0.952163
0.951551
0.950972
0.95042
0.949902
0.949424
0.948983
0.948594
0.948255
0.947972
0.947751
0.947604
0.947532
0.947543
0.947642
0.947842
0.948139
0.948548
0.949065
0.949695
0.950437
0.951286
0.952233
0.953264
0.954356
0.955484
0.956609
0.957679
0.958637
0.959402
0.959886
0.959979
0.959548
0.958434
0.956451
0.953378
0.948951
0.942849
0.934687
0.923999
0.910249
0.892847
0.871174
0.844447
0.811022
0.766512
0.699912
0.594153
0.440466
0.255272
0.0964548
0.0163909
0.533159
0.846026
0.912301
0.930626
0.939701
0.946221
0.952402
0.95943
0.967936
0.977729
0.986801
0.992609
0.995878
0.997648
0.998299
0.997848
0.996304
0.993806
0.99061
0.987027
0.983372
0.979916
0.976875
0.974392
0.972547
0.971365
0.970823
0.970765
0.97109
0.971742
0.972658
0.973777
0.975037
0.976382
0.977763
0.979139
0.980473
0.981739
0.982912
0.983978
0.984925
0.985748
0.986444
0.987007
0.987445
0.987756
0.987946
0.988019
0.987982
0.987842
0.987604
0.987275
0.986864
0.986376
0.98582
0.985202
0.984531
0.983811
0.983053
0.98226
0.981441
0.980601
0.979745
0.978878
0.97801
0.977137
0.976269
0.975406
0.974554
0.973714
0.972888
0.972077
0.971283
0.970508
0.969752
0.969015
0.968299
0.967599
0.96692
0.966261
0.965623
0.965006
0.964405
0.963828
0.963262
0.962715
0.962179
0.961662
0.961163
0.96068
0.960219
0.959781
0.959367
0.958979
0.958623
0.9583
0.958012
0.957766
0.957564
0.957408
0.957306
0.957261
0.957277
0.957355
0.9575
0.957712
0.957991
0.958338
0.958748
0.959211
0.959717
0.960251
0.960789
0.961303
0.961752
0.962096
0.962272
0.962214
0.961831
0.961025
0.959676
0.957642
0.954753
0.950815
0.945593
0.938797
0.930093
0.919074
0.905272
0.888175
0.867215
0.841619
0.809777
0.767625
0.705912
0.608819
0.46192
0.276656
0.109157
0.0197052
0.646888
0.873276
0.920525
0.934817
0.942357
0.947926
0.953748
0.960888
0.969842
0.980326
0.989752
0.994939
0.997475
0.998689
0.998763
0.997492
0.994814
0.990926
0.986202
0.981072
0.975962
0.971224
0.967125
0.963837
0.961446
0.959968
0.959356
0.959349
0.959881
0.96087
0.962228
0.963865
0.965698
0.967649
0.969652
0.971652
0.973603
0.975467
0.977218
0.978838
0.980313
0.981636
0.982803
0.983815
0.984674
0.985385
0.985957
0.986392
0.986698
0.986888
0.986967
0.986945
0.986826
0.986624
0.986345
0.985996
0.985588
0.985123
0.984617
0.984066
0.983486
0.982878
0.98225
0.981606
0.98095
0.98029
0.979625
0.978962
0.978303
0.977651
0.977006
0.976373
0.975751
0.97514
0.974545
0.973962
0.973394
0.97284
0.972302
0.97178
0.97127
0.970775
0.970298
0.969834
0.969381
0.968939
0.968508
0.968087
0.96768
0.967283
0.966901
0.966536
0.966185
0.96585
0.965539
0.965248
0.964979
0.96474
0.964527
0.964343
0.964194
0.96408
0.964
0.963961
0.963956
0.963988
0.964051
0.964148
0.964264
0.964395
0.964526
0.964638
0.964707
0.96471
0.964602
0.964342
0.963873
0.963133
0.962039
0.9605
0.958403
0.955625
0.952006
0.947371
0.94151
0.934157
0.925013
0.913716
0.899849
0.88295
0.862487
0.837691
0.806971
0.766464
0.707547
0.61528
0.4747
0.292988
0.12137
0.0234983
0.713453
0.899036
0.926333
0.937817
0.944238
0.949357
0.954714
0.961902
0.971313
0.982516
0.992298
0.996731
0.998563
0.99933
0.998819
0.996547
0.992423
0.986767
0.980128
0.973104
0.966246
0.959997
0.954684
0.950502
0.947538
0.945787
0.945173
0.945287
0.946126
0.947572
0.949505
0.951801
0.954347
0.95704
0.959795
0.962539
0.965212
0.967772
0.97019
0.972438
0.974506
0.976385
0.978074
0.979573
0.980889
0.982027
0.982998
0.98381
0.984472
0.984997
0.985393
0.985672
0.985843
0.985916
0.985901
0.985805
0.985643
0.985416
0.985136
0.984808
0.984439
0.984038
0.98361
0.98316
0.982692
0.982212
0.981722
0.981228
0.98073
0.980234
0.97974
0.97925
0.978765
0.97829
0.977821
0.977359
0.97691
0.976467
0.976037
0.975613
0.975203
0.9748
0.97441
0.974029
0.973659
0.973291
0.972929
0.972576
0.972227
0.971887
0.971553
0.971228
0.970912
0.970607
0.970312
0.970029
0.969759
0.969503
0.969264
0.969039
0.96883
0.96864
0.968463
0.968302
0.968155
0.968018
0.967887
0.967754
0.967613
0.967452
0.967255
0.967001
0.966672
0.966234
0.965652
0.964883
0.963875
0.962563
0.960875
0.958725
0.95601
0.952613
0.948392
0.943187
0.936796
0.928983
0.919474
0.907934
0.893989
0.87721
0.857092
0.832862
0.802937
0.763568
0.706561
0.617672
0.48184
0.303546
0.130054
0.0265064
0.757728
0.908112
0.930526
0.939915
0.945474
0.950249
0.955582
0.962502
0.972354
0.984291
0.994454
0.998038
0.999255
0.999691
0.998535
0.994988
0.98901
0.981134
0.972149
0.962855
0.953947
0.945971
0.939304
0.934164
0.930631
0.928671
0.928158
0.928502
0.929786
0.931849
0.934524
0.937646
0.941064
0.944651
0.948295
0.951907
0.955416
0.958773
0.961939
0.964888
0.967611
0.9701
0.972354
0.974379
0.976181
0.977772
0.979164
0.980365
0.981393
0.98226
0.982977
0.983558
0.984015
0.984359
0.9846
0.98475
0.984819
0.984815
0.984747
0.984624
0.984451
0.984237
0.983988
0.98371
0.983407
0.983083
0.982745
0.982394
0.982036
0.981669
0.9813
0.980931
0.980561
0.980192
0.979826
0.979463
0.979103
0.978748
0.978398
0.978053
0.977714
0.977382
0.977055
0.976733
0.976416
0.9761
0.975784
0.975474
0.975161
0.974854
0.974546
0.974241
0.973939
0.973643
0.973346
0.973055
0.972767
0.972481
0.972202
0.971923
0.971648
0.971375
0.971098
0.97082
0.970536
0.97024
0.969927
0.969588
0.969213
0.96879
0.968302
0.967731
0.967051
0.966232
0.965239
0.964032
0.962559
0.960762
0.95857
0.955903
0.952668
0.948752
0.94403
0.938343
0.931507
0.923309
0.913485
0.901728
0.887694
0.870979
0.851096
0.827268
0.797899
0.759302
0.703573
0.617017
0.484735
0.309567
0.135745
0.0286824
0.789822
0.914976
0.93389
0.941277
0.946119
0.950626
0.956018
0.962998
0.972965
0.985639
0.996239
0.998934
0.999657
0.999876
0.997941
0.992746
0.984414
0.973807
0.962016
0.950073
0.938826
0.92892
0.920787
0.914662
0.910611
0.908551
0.90803
0.908772
0.910713
0.913626
0.917277
0.92145
0.92595
0.930613
0.935304
0.939919
0.944377
0.948623
0.952617
0.956335
0.959766
0.962908
0.965764
0.968342
0.970654
0.972716
0.974541
0.976148
0.977548
0.978761
0.979803
0.980685
0.981424
0.982033
0.982525
0.982911
0.983203
0.98341
0.983543
0.98361
0.983618
0.983576
0.983492
0.983367
0.983211
0.98303
0.982823
0.982598
0.982359
0.982106
0.981844
0.981572
0.981296
0.981015
0.980731
0.980447
0.98016
0.979872
0.979584
0.979299
0.979011
0.978726
0.978443
0.978163
0.977882
0.977597
0.977312
0.977022
0.976732
0.976437
0.97614
0.975841
0.975535
0.97523
0.97492
0.974606
0.974285
0.973961
0.97363
0.973291
0.972945
0.972582
0.972208
0.971815
0.971395
0.970949
0.970464
0.969935
0.969347
0.968687
0.967938
0.967082
0.966091
0.964936
0.963588
0.961998
0.960123
0.957905
0.955281
0.952171
0.948492
0.944136
0.938984
0.93289
0.925679
0.917146
0.907046
0.895093
0.88096
0.864273
0.844545
0.820996
0.792007
0.753907
0.698989
0.614008
0.484374
0.31203
0.138955
0.0300954
0.813826
0.919882
0.935811
0.942007
0.946218
0.950474
0.955963
0.963359
0.973222
0.986549
0.997673
0.999497
0.999866
0.999958
0.99703
0.989716
0.978459
0.964572
0.94951
0.934547
0.920691
0.908678
0.898996
0.8919
0.887429
0.885441
0.885029
0.886385
0.889222
0.893227
0.898093
0.903537
0.909315
0.915225
0.921108
0.926844
0.932349
0.937558
0.942439
0.946973
0.951148
0.95497
0.958448
0.961595
0.964429
0.966968
0.969233
0.971243
0.973018
0.974577
0.975936
0.977118
0.978136
0.979005
0.97974
0.980356
0.980859
0.981268
0.98159
0.981835
0.982014
0.982129
0.982194
0.982213
0.982191
0.982133
0.982045
0.98193
0.981795
0.981638
0.981467
0.981279
0.981081
0.980871
0.980656
0.980431
0.980199
0.979964
0.979724
0.97948
0.979231
0.97898
0.978726
0.978468
0.978207
0.977941
0.977668
0.97739
0.977104
0.97681
0.976508
0.976197
0.97588
0.975554
0.975218
0.974869
0.974509
0.974137
0.973748
0.973343
0.972917
0.972469
0.971992
0.971483
0.970937
0.970343
0.9697
0.96899
0.968205
0.967328
0.966343
0.965229
0.963959
0.962508
0.96084
0.958915
0.956688
0.954104
0.951105
0.947617
0.943555
0.938822
0.933302
0.926857
0.919316
0.910491
0.900148
0.888011
0.873778
0.857088
0.837463
0.814105
0.785358
0.747546
0.693094
0.609125
0.481473
0.311699
0.140147
0.0308485
0.832066
0.923334
0.936825
0.94215
0.945765
0.949776
0.955366
0.963202
0.973457
0.987001
0.998765
0.999809
0.99996
0.999989
0.995775
0.985776
0.970967
0.953239
0.934454
0.916136
0.899427
0.885151
0.873864
0.865847
0.861115
0.859433
0.859523
0.86178
0.86581
0.871187
0.877519
0.884449
0.891678
0.898973
0.906151
0.913089
0.91969
0.925906
0.931697
0.937057
0.941984
0.946488
0.950585
0.954296
0.957644
0.960655
0.96335
0.965755
0.967894
0.969791
0.971462
0.972931
0.974216
0.975335
0.976302
0.977132
0.977843
0.97844
0.978942
0.979353
0.979688
0.97995
0.980152
0.980299
0.980397
0.980451
0.980468
0.98045
0.980404
0.980331
0.980236
0.980118
0.979986
0.979834
0.979671
0.979495
0.979308
0.979109
0.978902
0.978686
0.978464
0.978231
0.977992
0.977748
0.977495
0.977236
0.976963
0.976682
0.976388
0.976084
0.975766
0.975437
0.975093
0.974738
0.974365
0.973976
0.973568
0.973139
0.972688
0.972209
0.971702
0.971164
0.970584
0.969963
0.969291
0.96856
0.96776
0.966883
0.965913
0.964835
0.963634
0.962285
0.960765
0.959044
0.957093
0.95487
0.952334
0.949434
0.946107
0.942287
0.937894
0.932834
0.926996
0.920241
0.912418
0.903335
0.892769
0.880465
0.866133
0.849425
0.829863
0.806627
0.778019
0.740331
0.686074
0.602708
0.476546
0.309158
0.139726
0.0310541
0.846019
0.925693
0.937168
0.941666
0.944759
0.948494
0.954184
0.962509
0.973564
0.987087
0.999521
0.999951
0.999991
0.999998
0.994131
0.980803
0.961776
0.939661
0.91675
0.894782
0.875006
0.858322
0.845377
0.836529
0.831773
0.830455
0.831435
0.835066
0.840767
0.847953
0.856105
0.864785
0.873652
0.882448
0.89099
0.899154
0.906859
0.914063
0.920743
0.9269
0.932544
0.937696
0.94238
0.946624
0.950455
0.95391
0.957011
0.959789
0.962268
0.964479
0.966444
0.968187
0.969721
0.971076
0.972261
0.973294
0.974193
0.97497
0.975634
0.9762
0.976675
0.977072
0.977399
0.977661
0.977865
0.978019
0.978125
0.978192
0.978224
0.978221
0.978189
0.978131
0.978051
0.977948
0.977824
0.977685
0.977528
0.977356
0.977169
0.976972
0.976763
0.97654
0.976306
0.976061
0.975805
0.975541
0.975258
0.974963
0.974653
0.974328
0.973987
0.973627
0.973252
0.972856
0.97244
0.972002
0.971538
0.971047
0.970527
0.969973
0.969382
0.96875
0.968069
0.967336
0.966539
0.965672
0.964727
0.96369
0.962548
0.961282
0.95988
0.958316
0.956568
0.954608
0.952405
0.949916
0.947107
0.943925
0.940312
0.936205
0.931524
0.926179
0.920062
0.913043
0.904966
0.895649
0.884886
0.872428
0.858002
0.841262
0.821739
0.798579
0.770027
0.732333
0.678068
0.594994
0.469978
0.304866
0.138028
0.0308189
0.856669
0.927145
0.936859
0.940472
0.943181
0.946595
0.952361
0.961209
0.973134
0.987165
0.999934
0.999996
1
1
0.992043
0.974674
0.95076
0.923759
0.896388
0.870541
0.847507
0.82825
0.813571
0.804013
0.799576
0.798066
0.800613
0.806396
0.814513
0.82413
0.834567
0.845307
0.855986
0.866361
0.876273
0.885628
0.89437
0.902487
0.909971
0.916844
0.923129
0.928858
0.934061
0.938776
0.943036
0.946882
0.950345
0.953455
0.956242
0.958736
0.960964
0.962948
0.964712
0.966275
0.967657
0.968875
0.969944
0.970879
0.971692
0.972396
0.973001
0.973516
0.973951
0.974316
0.974613
0.974851
0.975037
0.975177
0.975272
0.975326
0.975348
0.975335
0.975295
0.975227
0.975133
0.975019
0.974883
0.974727
0.974551
0.974361
0.974153
0.973928
0.97369
0.973438
0.97317
0.972888
0.972589
0.97227
0.971932
0.971578
0.971201
0.970805
0.970389
0.969946
0.96948
0.968984
0.96846
0.967901
0.967309
0.966676
0.965997
0.96527
0.964487
0.96364
0.962722
0.961726
0.96064
0.959451
0.958145
0.956709
0.955119
0.953361
0.951406
0.949227
0.946796
0.944075
0.941026
0.937596
0.933731
0.929374
0.924442
0.918848
0.912486
0.905231
0.896929
0.887407
0.876465
0.863864
0.849348
0.832581
0.813077
0.789948
0.76139
0.723591
0.669161
0.58616
0.462056
0.299176
0.135327
0.0302372
0.864672
0.927876
0.936048
0.938815
0.941004
0.944022
0.949833
0.959238
0.972156
0.987237
1
0.999999
0.999998
0.999999
0.989465
0.967287
0.93783
0.905532
0.873477
0.843615
0.817162
0.795093
0.77848
0.768346
0.764718
0.764543
0.769378
0.77798
0.789058
0.801488
0.814429
0.82731
0.839781
0.85164
0.862789
0.873174
0.882796
0.891663
0.899802
0.90725
0.914047
0.920235
0.925855
0.93095
0.935559
0.939727
0.943484
0.946865
0.949909
0.952643
0.955089
0.95728
0.959237
0.960981
0.962529
0.963904
0.965121
0.966193
0.967135
0.967957
0.968672
0.969288
0.969818
0.970268
0.970642
0.970954
0.971203
0.971401
0.971547
0.971647
0.971707
0.971727
0.971717
0.971672
0.971598
0.971496
0.971367
0.971218
0.971043
0.970849
0.970633
0.9704
0.970146
0.969876
0.969586
0.969279
0.968949
0.968599
0.968228
0.967836
0.967419
0.966976
0.966509
0.966014
0.965489
0.964932
0.96434
0.963712
0.963041
0.962323
0.961558
0.960732
0.959845
0.95889
0.957853
0.95673
0.955509
0.954174
0.952717
0.951117
0.949357
0.947419
0.945275
0.942903
0.940269
0.937341
0.934076
0.930431
0.92635
0.921772
0.91662
0.910808
0.904229
0.896763
0.888261
0.878552
0.867448
0.854726
0.840131
0.823336
0.803837
0.78072
0.752102
0.714115
0.659406
0.576325
0.452987
0.292361
0.131842
0.0293893
0.870496
0.928009
0.93479
0.936648
0.938194
0.940729
0.946526
0.956519
0.970564
0.986992
1
1
0.999998
0.999997
0.986361
0.958547
0.922947
0.88508
0.84829
0.814421
0.78442
0.759152
0.740095
0.729486
0.725191
0.728066
0.737476
0.750875
0.766166
0.78197
0.797499
0.812348
0.826312
0.839322
0.851372
0.862482
0.872694
0.882061
0.89063
0.898455
0.90559
0.912081
0.91798
0.923331
0.928185
0.932577
0.936544
0.94013
0.943361
0.946272
0.948888
0.951238
0.953344
0.955229
0.956914
0.958411
0.959744
0.960926
0.96197
0.962887
0.963688
0.964387
0.964989
0.965506
0.965945
0.96631
0.966608
0.966846
0.967031
0.967163
0.967251
0.967293
0.967295
0.967261
0.967195
0.967096
0.966965
0.96681
0.966626
0.966419
0.966186
0.96593
0.965653
0.965352
0.965033
0.964693
0.964326
0.963936
0.963522
0.963081
0.962615
0.96212
0.961597
0.961041
0.960452
0.959826
0.959164
0.958456
0.957702
0.9569
0.956039
0.955119
0.954126
0.953061
0.951908
0.950663
0.949311
0.947839
0.946239
0.944487
0.942572
0.940469
0.938156
0.93561
0.932797
0.929686
0.926234
0.9224
0.918131
0.91336
0.908013
0.90201
0.89524
0.887584
0.8789
0.869026
0.857779
0.844948
0.830288
0.813472
0.793981
0.770851
0.742131
0.703894
0.648819
0.565562
0.442927
0.284627
0.127745
0.0283403
0.874437
0.927632
0.933095
0.933818
0.934422
0.936666
0.942369
0.95296
0.968277
0.986368
0.999997
0.999997
0.999998
0.999996
0.982693
0.948369
0.906117
0.862636
0.821331
0.78373
0.750187
0.721139
0.698352
0.686847
0.683088
0.692728
0.710156
0.730162
0.749998
0.768695
0.786046
0.802058
0.816793
0.830326
0.842743
0.854122
0.86454
0.874073
0.882784
0.890736
0.89799
0.904603
0.910617
0.916083
0.921046
0.925554
0.929637
0.933332
0.936672
0.939689
0.942411
0.944862
0.947067
0.949047
0.950821
0.952407
0.953822
0.955078
0.956194
0.957178
0.958042
0.958795
0.959451
0.960013
0.960489
0.960893
0.961222
0.961485
0.961691
0.961837
0.961935
0.961985
0.96199
0.961955
0.961883
0.961775
0.96163
0.961456
0.961253
0.961019
0.96076
0.960472
0.96016
0.959824
0.959463
0.959078
0.958665
0.958226
0.95776
0.957264
0.956739
0.956184
0.955595
0.954973
0.954314
0.953615
0.952872
0.952084
0.951245
0.95035
0.949397
0.948375
0.94728
0.946106
0.944839
0.943475
0.941998
0.940398
0.938662
0.936773
0.934715
0.932463
0.93
0.927299
0.924328
0.921056
0.917443
0.913445
0.909005
0.904068
0.898552
0.892374
0.88543
0.877604
0.868757
0.858734
0.84736
0.834444
0.819738
0.802914
0.783431
0.760277
0.731429
0.692892
0.6374
0.553917
0.431983
0.276124
0.123168
0.0271413
0.876662
0.926834
0.931059
0.93044
0.929776
0.931801
0.937281
0.948454
0.965183
0.98535
1
1
0.999998
1
0.978425
0.936656
0.887413
0.83862
0.793474
0.752952
0.716371
0.683124
0.653788
0.631227
0.640686
0.672367
0.701224
0.723709
0.744448
0.763659
0.781501
0.797376
0.811881
0.825142
0.837285
0.848409
0.858598
0.867926
0.876466
0.884276
0.891418
0.897936
0.903889
0.909308
0.914246
0.918737
0.922823
0.92653
0.929892
0.932939
0.93569
0.938178
0.940422
0.942442
0.944257
0.945884
0.947338
0.948636
0.949786
0.950805
0.9517
0.952482
0.95316
0.953743
0.95424
0.954653
0.954993
0.955264
0.95547
0.955617
0.95571
0.95575
0.955743
0.955691