/*--------------------------------*- C++ -*----------------------------------*\
  =========                 |
  \\      /  F ield         | OpenFOAM: The Open Source CFD Toolbox
   \\    /   O peration     | Website:  https://openfoam.org
    \\  /    A nd           | Version:  12
     \\/     M anipulation  |
\*---------------------------------------------------------------------------*/
FoamFile
{
    format      ascii;
    class       volScalarField;
    location    "50";
    object      p;
}
// * * * * * * * * * * * * * * * * * * * * * * * * * * * * * * * * * * * * * //

dimensions      [0 2 -2 0 0 0 0];

internalField   nonuniform List<scalar> 
4480
(
0.0109577
0.0109598
0.0109643
0.0109706
0.0109785
0.0109875
0.010997
0.0110065
0.0110151
0.0110219
0.0110259
0.0110262
0.0110218
0.0110122
0.0109969
0.0109757
0.0109488
0.0109166
0.0108799
0.0108394
0.0107962
0.0107513
0.0107057
0.0106603
0.0106158
0.010573
0.0105322
0.010494
0.0104586
0.0104262
0.0103967
0.01037
0.0103462
0.0103249
0.010306
0.0102893
0.0102746
0.0102616
0.0102503
0.0102404
0.0102318
0.0102242
0.0102175
0.0102117
0.0102066
0.0102021
0.0101981
0.0101946
0.0101915
0.0101887
0.0101862
0.0101839
0.0101818
0.0101799
0.0101782
0.0101766
0.0101751
0.0101737
0.0101724
0.0101712
0.01017
0.0101689
0.0101678
0.0101667
0.0101656
0.0101646
0.0101635
0.0101625
0.0101615
0.0101604
0.0101594
0.0101583
0.0101572
0.0101561
0.010155
0.0101538
0.0101527
0.0101515
0.0101503
0.010149
0.0101477
0.0101464
0.0101451
0.0101438
0.0101424
0.010141
0.0101395
0.010138
0.0101365
0.010135
0.0101334
0.0101318
0.0101301
0.0101284
0.0101267
0.0101249
0.0101231
0.0101212
0.0101192
0.0101172
0.0101151
0.0101129
0.0101106
0.0101083
0.0101057
0.0101031
0.0101003
0.0100973
0.0100941
0.0100906
0.0100868
0.0100827
0.0100782
0.0100732
0.0100677
0.0100615
0.0100546
0.0100472
0.0100396
0.0100331
0.0100295
0.0100313
0.010063
0.0102622
0.0108286
0.0105178
0.00445003
0.00383409
0.0039734
0.00479885
0.0111592
0.0113483
0.0106623
0.0103904
0.0103067
0.0102627
0.0102311
0.0102084
0.0101893
0.0101642
0.0109554
0.010957
0.0109597
0.0109634
0.0109679
0.0109729
0.0109781
0.0109829
0.0109867
0.0109888
0.0109885
0.0109849
0.0109776
0.0109659
0.0109495
0.0109283
0.0109024
0.0108722
0.0108383
0.0108015
0.0107626
0.0107223
0.0106816
0.0106411
0.0106016
0.0105636
0.0105274
0.0104934
0.0104619
0.0104329
0.0104065
0.0103825
0.0103608
0.0103414
0.0103239
0.0103083
0.0102944
0.0102819
0.0102708
0.0102609
0.010252
0.010244
0.0102369
0.0102304
0.0102246
0.0102193
0.0102144
0.0102101
0.010206
0.0102023
0.0101989
0.0101958
0.0101929
0.0101902
0.0101876
0.0101853
0.0101831
0.010181
0.0101791
0.0101772
0.0101755
0.0101738
0.0101722
0.0101707
0.0101692
0.0101677
0.0101663
0.010165
0.0101636
0.0101623
0.010161
0.0101597
0.0101584
0.0101571
0.0101558
0.0101545
0.0101532
0.0101519
0.0101505
0.0101492
0.0101478
0.0101464
0.010145
0.0101435
0.010142
0.0101405
0.010139
0.0101374
0.0101358
0.0101342
0.0101325
0.0101308
0.010129
0.0101271
0.0101252
0.0101233
0.0101212
0.0101191
0.0101169
0.0101146
0.0101122
0.0101097
0.010107
0.0101041
0.010101
0.0100977
0.0100942
0.0100903
0.0100861
0.0100815
0.0100763
0.0100705
0.010064
0.0100566
0.0100482
0.0100384
0.0100269
0.0100133
0.00999707
0.00997707
0.00995071
0.00991127
0.00984821
0.0097513
0.0095353
0.00871311
0.00705899
0.00676858
0.00693448
0.00747289
0.00921027
0.00996623
0.010113
0.0101589
0.0101803
0.0101832
0.0101777
0.0101708
0.0101619
0.0101382
0.0109515
0.0109536
0.0109561
0.0109593
0.0109633
0.0109678
0.0109724
0.0109765
0.0109796
0.0109811
0.0109801
0.010976
0.0109681
0.010956
0.0109391
0.0109176
0.0108915
0.0108612
0.0108273
0.0107906
0.0107519
0.0107121
0.0106719
0.0106321
0.0105934
0.0105563
0.0105211
0.0104881
0.0104575
0.0104296
0.0104041
0.010381
0.0103602
0.0103415
0.0103248
0.0103098
0.0102964
0.0102844
0.0102737
0.0102641
0.0102554
0.0102476
0.0102405
0.0102341
0.0102283
0.0102229
0.0102181
0.0102136
0.0102094
0.0102056
0.010202
0.0101987
0.0101956
0.0101927
0.0101901
0.0101875
0.0101852
0.0101829
0.0101808
0.0101788
0.0101769
0.0101751
0.0101734
0.0101718
0.0101702
0.0101686
0.0101671
0.0101657
0.0101643
0.0101629
0.0101615
0.0101601
0.0101588
0.0101575
0.0101561
0.0101548
0.0101534
0.010152
0.0101507
0.0101493
0.0101479
0.0101464
0.010145
0.0101435
0.010142
0.0101405
0.0101389
0.0101373
0.0101357
0.010134
0.0101323
0.0101305
0.0101287
0.0101269
0.0101249
0.0101229
0.0101208
0.0101187
0.0101164
0.010114
0.0101116
0.0101089
0.0101061
0.0101032
0.0101
0.0100966
0.0100929
0.0100888
0.0100844
0.0100795
0.0100741
0.0100679
0.010061
0.0100531
0.010044
0.0100333
0.0100206
0.0100052
0.009986
0.00996129
0.00992768
0.0098786
0.00980189
0.00967381
0.00943432
0.00895806
0.00831775
0.00813968
0.00826151
0.00861595
0.00931458
0.00978008
0.00998947
0.0100846
0.010129
0.0101475
0.0101532
0.0101534
0.0101482
0.0101211
0.0109468
0.0109494
0.0109518
0.010955
0.010959
0.0109634
0.0109679
0.010972
0.0109751
0.0109765
0.0109754
0.010971
0.0109628
0.0109501
0.0109326
0.0109103
0.0108834
0.0108523
0.0108176
0.0107803
0.0107411
0.0107009
0.0106606
0.0106209
0.0105824
0.0105457
0.0105111
0.0104789
0.0104493
0.0104222
0.0103976
0.0103755
0.0103556
0.0103378
0.0103219
0.0103077
0.010295
0.0102836
0.0102735
0.0102643
0.0102561
0.0102486
0.0102418
0.0102356
0.0102299
0.0102247
0.0102199
0.0102154
0.0102113
0.0102074
0.0102039
0.0102005
0.0101973
0.0101944
0.0101916
0.010189
0.0101866
0.0101842
0.010182
0.01018
0.010178
0.0101761
0.0101743
0.0101726
0.0101709
0.0101693
0.0101677
0.0101662
0.0101648
0.0101633
0.0101619
0.0101605
0.0101591
0.0101577
0.0101564
0.010155
0.0101536
0.0101522
0.0101508
0.0101494
0.010148
0.0101465
0.010145
0.0101435
0.010142
0.0101405
0.0101389
0.0101373
0.0101357
0.010134
0.0101322
0.0101305
0.0101286
0.0101267
0.0101248
0.0101228
0.0101207
0.0101185
0.0101162
0.0101138
0.0101113
0.0101086
0.0101058
0.0101028
0.0100996
0.0100961
0.0100923
0.0100882
0.0100837
0.0100788
0.0100732
0.010067
0.01006
0.0100519
0.0100426
0.0100316
0.0100186
0.0100026
0.00998275
0.00995718
0.00992305
0.00987563
0.00980733
0.00970564
0.00954712
0.00929708
0.0089967
0.00890376
0.00899333
0.00921709
0.00956844
0.00982829
0.00997616
0.0100581
0.010103
0.0101261
0.0101366
0.0101405
0.0101374
0.0101083
0.0109413
0.0109441
0.0109466
0.0109497
0.0109537
0.0109581
0.0109627
0.0109668
0.0109699
0.0109712
0.0109698
0.0109651
0.0109562
0.0109427
0.0109242
0.0109008
0.0108726
0.0108403
0.0108045
0.0107661
0.0107261
0.0106854
0.0106448
0.0106051
0.010567
0.0105308
0.0104971
0.0104658
0.0104373
0.0104113
0.010388
0.0103671
0.0103484
0.0103317
0.0103169
0.0103037
0.010292
0.0102815
0.0102721
0.0102636
0.0102559
0.010249
0.0102426
0.0102367
0.0102313
0.0102263
0.0102216
0.0102173
0.0102132
0.0102094
0.0102058
0.0102024
0.0101992
0.0101962
0.0101933
0.0101906
0.0101881
0.0101857
0.0101834
0.0101812
0.0101791
0.0101772
0.0101753
0.0101735
0.0101717
0.0101701
0.0101684
0.0101669
0.0101653
0.0101638
0.0101624
0.0101609
0.0101595
0.0101581
0.0101566
0.0101552
0.0101538
0.0101524
0.010151
0.0101495
0.0101481
0.0101466
0.0101451
0.0101436
0.0101421
0.0101405
0.0101389
0.0101373
0.0101357
0.010134
0.0101322
0.0101304
0.0101286
0.0101267
0.0101247
0.0101227
0.0101205
0.0101183
0.010116
0.0101136
0.0101111
0.0101084
0.0101056
0.0101025
0.0100993
0.0100958
0.010092
0.0100879
0.0100833
0.0100784
0.0100728
0.0100666
0.0100595
0.0100515
0.0100422
0.0100313
0.0100183
0.0100027
0.00998334
0.00995894
0.00992738
0.00988563
0.00982954
0.00975387
0.00965146
0.00951603
0.00937577
0.00933712
0.00940334
0.00954224
0.00972666
0.00987885
0.00998133
0.0100471
0.0100878
0.0101113
0.0101237
0.0101295
0.0101278
0.0100991
0.0109352
0.010938
0.0109404
0.0109436
0.0109477
0.0109523
0.010957
0.0109613
0.0109644
0.0109657
0.0109641
0.0109588
0.0109492
0.0109346
0.0109147
0.0108897
0.0108598
0.0108257
0.0107883
0.0107485
0.0107073
0.0106658
0.0106247
0.0105849
0.010547
0.0105115
0.0104786
0.0104485
0.0104212
0.0103966
0.0103747
0.0103552
0.010338
0.0103227
0.0103093
0.0102974
0.0102868
0.0102774
0.0102689
0.0102613
0.0102544
0.0102481
0.0102423
0.0102369
0.0102319
0.0102272
0.0102228
0.0102186
0.0102147
0.0102109
0.0102074
0.010204
0.0102008
0.0101978
0.0101949
0.0101921
0.0101895
0.010187
0.0101847
0.0101824
0.0101803
0.0101782
0.0101763
0.0101744
0.0101726
0.0101708
0.0101692
0.0101675
0.0101659
0.0101644
0.0101629
0.0101614
0.0101599
0.0101584
0.010157
0.0101555
0.0101541
0.0101526
0.0101512
0.0101497
0.0101483
0.0101468
0.0101453
0.0101437
0.0101422
0.0101406
0.010139
0.0101374
0.0101357
0.010134
0.0101322
0.0101304
0.0101286
0.0101267
0.0101247
0.0101227
0.0101205
0.0101183
0.010116
0.0101136
0.0101111
0.0101084
0.0101055
0.0101025
0.0100993
0.0100958
0.010092
0.0100879
0.0100835
0.0100785
0.0100731
0.010067
0.0100601
0.0100523
0.0100433
0.0100328
0.0100205
0.0100058
0.00998802
0.00996614
0.00993884
0.00990443
0.009861
0.00980684
0.00974117
0.00966678
0.00960234
0.00959062
0.00963808
0.00972681
0.00983092
0.00992415
0.00999583
0.0100469
0.0100813
0.0101027
0.010115
0.0101215
0.0101208
0.0100944
0.0109285
0.0109308
0.0109332
0.0109366
0.0109409
0.0109458
0.0109508
0.0109554
0.0109588
0.0109601
0.0109582
0.0109524
0.0109416
0.0109256
0.0109039
0.0108768
0.0108446
0.0108083
0.0107688
0.0107271
0.0106844
0.0106417
0.0106
0.01056
0.0105223
0.0104874
0.0104555
0.0104267
0.0104008
0.0103779
0.0103576
0.0103398
0.0103243
0.0103107
0.0102988
0.0102884
0.0102793
0.0102712
0.0102639
0.0102574
0.0102514
0.0102459
0.0102408
0.010236
0.0102315
0.0102273
0.0102232
0.0102193
0.0102156
0.010212
0.0102086
0.0102053
0.0102022
0.0101992
0.0101963
0.0101935
0.0101909
0.0101883
0.0101859
0.0101836
0.0101814
0.0101793
0.0101772
0.0101753
0.0101734
0.0101716
0.0101699
0.0101682
0.0101665
0.0101649
0.0101634
0.0101618
0.0101603
0.0101588
0.0101573
0.0101559
0.0101544
0.0101529
0.0101514
0.01015
0.0101485
0.010147
0.0101454
0.0101439
0.0101423
0.0101408
0.0101391
0.0101375
0.0101358
0.0101341
0.0101323
0.0101305
0.0101287
0.0101268
0.0101248
0.0101228
0.0101207
0.0101185
0.0101162
0.0101138
0.0101113
0.0101086
0.0101058
0.0101028
0.0100996
0.0100962
0.0100925
0.0100885
0.0100842
0.0100794
0.0100742
0.0100683
0.0100618
0.0100544
0.0100459
0.0100362
0.010025
0.0100118
0.00999612
0.00997743
0.00995499
0.00992803
0.00989596
0.0098588
0.00981783
0.00977724
0.00974802
0.00974808
0.00978158
0.00984006
0.00990571
0.0099653
0.0100151
0.0100535
0.0100811
0.0100994
0.0101105
0.0101168
0.0101166
0.010094
0.0109212
0.0109225
0.010925
0.0109285
0.0109332
0.0109385
0.010944
0.010949
0.0109527
0.010954
0.0109519
0.0109452
0.0109332
0.0109152
0.0108912
0.0108614
0.0108265
0.0107874
0.0107452
0.0107012
0.0106567
0.0106127
0.0105702
0.01053
0.0104927
0.0104585
0.0104278
0.0104004
0.0103763
0.0103552
0.0103369
0.010321
0.0103074
0.0102957
0.0102857
0.0102771
0.0102695
0.0102629
0.0102571
0.0102518
0.0102469
0.0102424
0.0102382
0.0102342
0.0102303
0.0102266
0.010223
0.0102195
0.0102161
0.0102127
0.0102095
0.0102064
0.0102033
0.0102003
0.0101975
0.0101947
0.0101921
0.0101895
0.0101871
0.0101847
0.0101825
0.0101803
0.0101782
0.0101762
0.0101743
0.0101724
0.0101706
0.0101689
0.0101672
0.0101655
0.0101639
0.0101624
0.0101608
0.0101593
0.0101577
0.0101562
0.0101547
0.0101532
0.0101517
0.0101502
0.0101487
0.0101472
0.0101457
0.0101441
0.0101425
0.010141
0.0101393
0.0101377
0.010136
0.0101343
0.0101325
0.0101307
0.0101289
0.010127
0.010125
0.010123
0.0101209
0.0101188
0.0101165
0.0101141
0.0101117
0.0101091
0.0101063
0.0101034
0.0101003
0.010097
0.0100935
0.0100896
0.0100855
0.010081
0.010076
0.0100705
0.0100644
0.0100576
0.0100499
0.0100412
0.0100312
0.0100198
0.0100065
0.0099912
0.00997347
0.00995314
0.0099303
0.0099056
0.00988073
0.00985905
0.0098467
0.00985161
0.00987577
0.00991497
0.00995957
0.0100002
0.0100351
0.0100634
0.0100849
0.0100999
0.0101095
0.0101151
0.0101154
0.0100975
0.0109131
0.010913
0.0109154
0.0109193
0.0109243
0.0109301
0.0109362
0.0109418
0.0109459
0.0109472
0.0109447
0.010937
0.0109233
0.010903
0.0108761
0.0108431
0.0108047
0.0107623
0.010717
0.0106704
0.0106238
0.0105784
0.0105352
0.0104949
0.0104579
0.0104248
0.0103954
0.0103698
0.0103477
0.0103287
0.0103126
0.010299
0.0102876
0.0102781
0.0102701
0.0102635
0.0102578
0.0102529
0.0102486
0.0102447
0.0102412
0.0102378
0.0102346
0.0102315
0.0102284
0.0102253
0.0102222
0.0102192
0.0102161
0.0102131
0.0102101
0.0102071
0.0102042
0.0102014
0.0101986
0.0101959
0.0101932
0.0101907
0.0101882
0.0101858
0.0101835
0.0101813
0.0101792
0.0101772
0.0101752
0.0101733
0.0101714
0.0101696
0.0101679
0.0101662
0.0101645
0.0101629
0.0101613
0.0101597
0.0101582
0.0101567
0.0101551
0.0101536
0.0101521
0.0101506
0.010149
0.0101475
0.010146
0.0101444
0.0101428
0.0101412
0.0101396
0.0101379
0.0101363
0.0101346
0.0101328
0.010131
0.0101292
0.0101273
0.0101254
0.0101234
0.0101213
0.0101192
0.010117
0.0101147
0.0101123
0.0101097
0.0101071
0.0101043
0.0101013
0.0100982
0.0100948
0.0100912
0.0100873
0.0100831
0.0100785
0.0100734
0.0100679
0.0100618
0.0100549
0.0100473
0.0100388
0.0100292
0.0100183
0.0100062
0.00999265
0.00997781
0.00996203
0.0099461
0.00993148
0.00992048
0.0099165
0.00992313
0.00994115
0.00996812
0.00999912
0.0100284
0.0100537
0.0100747
0.0100912
0.0101033
0.0101113
0.0101162
0.0101168
0.0101039
0.010904
0.010902
0.0109043
0.0109085
0.010914
0.0109204
0.0109272
0.0109335
0.010938
0.0109394
0.0109363
0.0109274
0.0109116
0.0108885
0.0108582
0.0108212
0.0107789
0.0107325
0.0106838
0.0106343
0.0105855
0.0105386
0.0104947
0.0104544
0.0104182
0.0103863
0.0103587
0.0103352
0.0103154
0.0102988
0.0102852
0.0102741
0.0102652
0.0102581
0.0102524
0.0102479
0.0102443
0.0102413
0.0102387
0.0102364
0.0102343
0.0102322
0.0102301
0.0102279
0.0102257
0.0102234
0.0102209
0.0102184
0.0102158
0.0102131
0.0102104
0.0102077
0.010205
0.0102023
0.0101996
0.0101969
0.0101943
0.0101918
0.0101893
0.0101869
0.0101846
0.0101824
0.0101802
0.0101781
0.0101761
0.0101741
0.0101722
0.0101704
0.0101686
0.0101669
0.0101652
0.0101635
0.0101619
0.0101603
0.0101587
0.0101571
0.0101556
0.010154
0.0101525
0.0101509
0.0101494
0.0101478
0.0101463
0.0101447
0.0101431
0.0101415
0.0101399
0.0101383
0.0101366
0.0101349
0.0101331
0.0101314
0.0101296
0.0101277
0.0101258
0.0101239
0.0101219
0.0101198
0.0101176
0.0101154
0.0101131
0.0101106
0.0101081
0.0101054
0.0101026
0.0100997
0.0100965
0.0100931
0.0100896
0.0100857
0.0100815
0.010077
0.0100721
0.0100667
0.0100608
0.0100544
0.0100472
0.0100394
0.0100308
0.0100215
0.0100115
0.010001
0.00999051
0.00998065
0.00997252
0.00996763
0.00996783
0.00997477
0.00998864
0.0100079
0.0100298
0.0100513
0.0100704
0.0100864
0.0100992
0.0101087
0.0101153
0.0101194
0.0101204
0.0101123
0.0108936
0.0108891
0.0108914
0.0108961
0.010902
0.0109091
0.0109167
0.0109237
0.0109287
0.0109302
0.0109265
0.0109161
0.0108979
0.0108714
0.0108369
0.0107954
0.0107484
0.0106976
0.010645
0.0105924
0.0105413
0.0104931
0.0104487
0.0104088
0.0103736
0.0103434
0.0103179
0.0102968
0.0102796
0.0102658
0.010255
0.0102467
0.0102405
0.010236
0.0102329
0.0102308
0.0102293
0.0102284
0.0102277
0.0102271
0.0102265
0.0102258
0.0102249
0.0102238
0.0102225
0.0102209
0.0102192
0.0102173
0.0102152
0.0102129
0.0102105
0.0102081
0.0102056
0.010203
0.0102005
0.0101979
0.0101954
0.0101929
0.0101904
0.010188
0.0101857
0.0101834
0.0101813
0.0101791
0.0101771
0.010175
0.0101731
0.0101712
0.0101694
0.0101676
0.0101659
0.0101642
0.0101625
0.0101608
0.0101592
0.0101576
0.010156
0.0101545
0.0101529
0.0101513
0.0101498
0.0101482
0.0101467
0.0101451
0.0101435
0.0101419
0.0101403
0.0101386
0.010137
0.0101353
0.0101336
0.0101318
0.01013
0.0101282
0.0101264
0.0101245
0.0101225
0.0101205
0.0101184
0.0101163
0.0101141
0.0101118
0.0101094
0.0101069
0.0101042
0.0101015
0.0100986
0.0100955
0.0100922
0.0100888
0.010085
0.0100811
0.0100768
0.0100722
0.0100673
0.010062
0.0100562
0.01005
0.0100435
0.0100366
0.0100295
0.0100224
0.0100157
0.01001
0.010006
0.0100046
0.0100069
0.0100136
0.0100246
0.0100389
0.0100548
0.0100708
0.0100853
0.0100978
0.0101079
0.0101156
0.010121
0.0101245
0.0101258
0.0101221
0.0108814
0.010874
0.0108762
0.0108814
0.0108881
0.0108958
0.0109041
0.010912
0.0109178
0.0109194
0.010915
0.0109028
0.0108816
0.0108511
0.0108118
0.0107651
0.0107128
0.0106572
0.0106005
0.0105447
0.0104914
0.0104421
0.0103975
0.0103583
0.0103247
0.0102965
0.0102736
0.0102553
0.0102411
0.0102303
0.0102225
0.0102173
0.0102141
0.0102125
0.010212
0.0102124
0.0102133
0.0102145
0.0102158
0.010217
0.010218
0.0102187
0.0102191
0.0102192
0.0102188
0.0102182
0.0102172
0.0102159
0.0102143
0.0102125
0.0102105
0.0102084
0.0102061
0.0102037
0.0102013
0.0101989
0.0101964
0.010194
0.0101916
0.0101892
0.0101868
0.0101845
0.0101823
0.0101802
0.010178
0.010176
0.010174
0.0101721
0.0101702
0.0101684
0.0101666
0.0101649
0.0101631
0.0101615
0.0101598
0.0101582
0.0101566
0.010155
0.0101534
0.0101518
0.0101502
0.0101487
0.0101471
0.0101455
0.0101439
0.0101423
0.0101407
0.0101391
0.0101374
0.0101357
0.0101341
0.0101323
0.0101306
0.0101288
0.010127
0.0101252
0.0101233
0.0101213
0.0101194
0.0101173
0.0101152
0.0101131
0.0101108
0.0101085
0.0101061
0.0101035
0.0101009
0.0100981
0.0100952
0.0100922
0.010089
0.0100856
0.010082
0.0100781
0.0100741
0.0100699
0.0100654
0.0100607
0.0100559
0.010051
0.0100462
0.0100418
0.0100379
0.010035
0.0100336
0.0100343
0.0100376
0.0100438
0.0100527
0.0100637
0.0100757
0.0100878
0.0100989
0.0101087
0.0101169
0.0101232
0.0101279
0.010131
0.0101326
0.0101326
0.0108669
0.0108561
0.0108582
0.0108641
0.0108716
0.0108802
0.0108892
0.010898
0.0109046
0.0109064
0.0109012
0.010887
0.0108625
0.0108273
0.0107826
0.0107299
0.0106719
0.010611
0.01055
0.010491
0.0104358
0.0103857
0.0103415
0.0103035
0.0102718
0.0102463
0.0102264
0.0102113
0.0102004
0.010193
0.0101886
0.0101866
0.0101865
0.0101879
0.0101903
0.0101933
0.0101966
0.0102001
0.0102034
0.0102064
0.0102091
0.0102113
0.010213
0.0102142
0.0102149
0.0102152
0.0102149
0.0102143
0.0102133
0.010212
0.0102104
0.0102085
0.0102065
0.0102044
0.0102021
0.0101998
0.0101974
0.0101951
0.0101927
0.0101903
0.010188
0.0101857
0.0101834
0.0101812
0.0101791
0.010177
0.010175
0.010173
0.0101711
0.0101692
0.0101674
0.0101656
0.0101638
0.0101621
0.0101604
0.0101588
0.0101571
0.0101555
0.0101539
0.0101523
0.0101507
0.0101491
0.0101475
0.010146
0.0101444
0.0101428
0.0101412
0.0101395
0.0101379
0.0101363
0.0101346
0.0101329
0.0101312
0.0101295
0.0101277
0.010126
0.0101242
0.0101223
0.0101204
0.0101185
0.0101165
0.0101145
0.0101124
0.0101103
0.0101081
0.0101058
0.0101035
0.010101
0.0100985
0.0100959
0.0100931
0.0100903
0.0100874
0.0100843
0.0100811
0.0100779
0.0100745
0.0100712
0.0100679
0.0100646
0.0100617
0.0100592
0.0100573
0.0100564
0.0100567
0.0100586
0.0100624
0.010068
0.0100754
0.0100841
0.0100935
0.0101029
0.0101116
0.0101194
0.010126
0.0101314
0.0101354
0.0101382
0.0101402
0.0101435
0.0108495
0.0108347
0.0108368
0.0108434
0.010852
0.0108618
0.0108718
0.0108812
0.0108886
0.0108909
0.010885
0.0108685
0.0108401
0.0107998
0.0107488
0.0106896
0.0106252
0.0105589
0.0104936
0.0104316
0.0103748
0.0103245
0.0102811
0.010245
0.010216
0.0101935
0.0101771
0.0101657
0.0101583
0.0101546
0.0101537
0.0101552
0.0101584
0.0101629
0.0101682
0.0101739
0.0101797
0.0101854
0.0101908
0.0101957
0.0102
0.0102037
0.0102068
0.0102091
0.0102109
0.010212
0.0102126
0.0102126
0.0102122
0.0102114
0.0102102
0.0102087
0.0102069
0.010205
0.0102029
0.0102008
0.0101985
0.0101962
0.0101938
0.0101915
0.0101891
0.0101868
0.0101846
0.0101823
0.0101802
0.010178
0.010176
0.010174
0.010172
0.0101701
0.0101682
0.0101664
0.0101646
0.0101628
0.0101611
0.0101594
0.0101577
0.0101561
0.0101545
0.0101528
0.0101512
0.0101496
0.010148
0.0101465
0.0101449
0.0101433
0.0101417
0.0101401
0.0101385
0.0101368
0.0101352
0.0101336
0.0101319
0.0101302
0.0101286
0.0101268
0.0101251
0.0101234
0.0101216
0.0101198
0.010118
0.0101161
0.0101142
0.0101122
0.0101103
0.0101083
0.0101062
0.0101041
0.0101019
0.0100997
0.0100975
0.0100952
0.0100929
0.0100905
0.0100882
0.0100858
0.0100835
0.0100813
0.0100792
0.0100773
0.0100758
0.0100748
0.0100744
0.0100748
0.0100762
0.0100789
0.0100828
0.0100879
0.0100943
0.0101014
0.0101089
0.0101164
0.0101234
0.0101298
0.0101353
0.0101398
0.0101434
0.010146
0.0101483
0.0101542
0.0108282
0.0108091
0.0108111
0.0108186
0.0108284
0.0108397
0.0108513
0.0108613
0.0108694
0.0108723
0.0108657
0.0108469
0.0108143
0.0107681
0.0107102
0.0106438
0.0105728
0.0105008
0.0104313
0.0103668
0.010309
0.0102591
0.0102174
0.0101838
0.010158
0.0101393
0.0101268
0.0101192
0.0101158
0.0101159
0.0101188
0.0101239
0.0101305
0.0101381
0.0101463
0.0101547
0.0101629
0.0101709
0.0101783
0.010185
0.010191
0.0101962
0.0102006
0.0102041
0.0102069
0.0102089
0.0102102
0.010211
0.0102111
0.0102107
0.01021
0.0102088
0.0102074
0.0102057
0.0102038
0.0102017
0.0101995
0.0101973
0.010195
0.0101927
0.0101904
0.010188
0.0101858
0.0101835
0.0101813
0.0101791
0.010177
0.010175
0.0101729
0.010171
0.0101691
0.0101672
0.0101654
0.0101636
0.0101618
0.0101601
0.0101584
0.0101567
0.0101551
0.0101534
0.0101518
0.0101502
0.0101486
0.010147
0.0101454
0.0101438
0.0101422
0.0101406
0.0101391
0.0101375
0.0101359
0.0101343
0.0101327
0.0101311
0.0101294
0.0101278
0.0101262
0.0101245
0.0101228
0.0101212
0.0101195
0.0101178
0.0101161
0.0101143
0.0101126
0.0101108
0.0101091
0.0101073
0.0101055
0.0101037
0.010102
0.0101002
0.0100985
0.0100968
0.0100951
0.0100936
0.0100921
0.0100909
0.0100898
0.0100891
0.0100887
0.0100888
0.0100894
0.0100908
0.0100929
0.010096
0.0100999
0.0101047
0.0101102
0.0101162
0.0101225
0.0101286
0.0101344
0.0101397
0.0101443
0.0101484
0.0101517
0.0101541
0.0101566
0.0101647
0.0108022
0.0107786
0.0107804
0.0107888
0.0107999
0.010813
0.0108266
0.010838
0.0108463
0.0108499
0.0108431
0.0108219
0.0107847
0.010732
0.0106666
0.0105925
0.0105145
0.0104371
0.0103637
0.0102972
0.0102392
0.0101905
0.0101512
0.0101209
0.010099
0.0100847
0.0100763
0.0100729
0.0100737
0.0100778
0.0100846
0.0100933
0.0101033
0.010114
0.0101251
0.0101361
0.0101468
0.0101569
0.0101663
0.0101748
0.0101824
0.010189
0.0101946
0.0101993
0.010203
0.0102059
0.010208
0.0102094
0.0102101
0.0102102
0.0102098
0.010209
0.0102078
0.0102063
0.0102046
0.0102027
0.0102006
0.0101984
0.0101962
0.0101939
0.0101916
0.0101893
0.010187
0.0101847
0.0101824
0.0101802
0.0101781
0.010176
0.0101739
0.0101719
0.01017
0.010168
0.0101662
0.0101643
0.0101625
0.0101608
0.0101591
0.0101574
0.0101557
0.010154
0.0101524
0.0101508
0.0101492
0.0101476
0.010146
0.0101444
0.0101428
0.0101413
0.0101397
0.0101381
0.0101366
0.010135
0.0101335
0.0101319
0.0101304
0.0101288
0.0101273
0.0101257
0.0101242
0.0101226
0.0101211
0.0101195
0.010118
0.0101165
0.010115
0.0101135
0.010112
0.0101106
0.0101091
0.0101078
0.0101064
0.0101052
0.010104
0.0101029
0.0101019
0.010101
0.0101004
0.0100999
0.0100997
0.0100998
0.0101003
0.0101013
0.0101027
0.0101047
0.0101073
0.0101106
0.0101145
0.010119
0.0101239
0.0101291
0.0101345
0.0101397
0.0101446
0.0101491
0.0101532
0.0101568
0.0101599
0.0101622
0.010165
0.0101747
0.0107703
0.0107421
0.0107438
0.0107531
0.0107655
0.0107805
0.0107966
0.0108104
0.0108193
0.0108232
0.0108165
0.0107932
0.0107512
0.0106915
0.0106179
0.0105358
0.0104508
0.010368
0.0102915
0.0102238
0.0101664
0.0101199
0.0100839
0.0100577
0.0100403
0.0100307
0.0100269
0.0100279
0.0100329
0.0100412
0.0100519
0.0100642
0.0100775
0.0100913
0.0101051
0.0101187
0.0101316
0.0101438
0.010155
0.0101652
0.0101743
0.0101822
0.0101891
0.0101948
0.0101995
0.0102032
0.010206
0.0102079
0.0102092
0.0102097
0.0102097
0.0102092
0.0102083
0.0102071
0.0102055
0.0102037
0.0102017
0.0101996
0.0101974
0.0101952
0.0101928
0.0101905
0.0101882
0.0101859
0.0101836
0.0101814
0.0101792
0.010177
0.0101749
0.0101729
0.0101709
0.0101689
0.010167
0.0101651
0.0101633
0.0101615
0.0101597
0.010158
0.0101563
0.0101546
0.010153
0.0101514
0.0101497
0.0101481
0.0101466
0.010145
0.0101434
0.0101419
0.0101403
0.0101388
0.0101373
0.0101358
0.0101343
0.0101328
0.0101313
0.0101298
0.0101284
0.0101269
0.0101255
0.0101241
0.0101227
0.0101213
0.01012
0.0101187
0.0101174
0.0101162
0.010115
0.0101138
0.0101128
0.0101118
0.0101109
0.01011
0.0101094
0.0101088
0.0101084
0.0101082
0.0101081
0.0101084
0.0101089
0.0101097
0.0101109
0.0101124
0.0101145
0.0101169
0.0101199
0.0101233
0.0101272
0.0101314
0.0101359
0.0101405
0.0101452
0.0101497
0.010154
0.010158
0.0101616
0.010165
0.0101679
0.0101702
0.0101732
0.0101841
0.0107313
0.0106987
0.0107002
0.0107102
0.010724
0.0107412
0.01076
0.0107772
0.0107881
0.0107918
0.0107856
0.0107606
0.0107137
0.0106466
0.0105644
0.0104739
0.0103819
0.0102944
0.0102154
0.0101475
0.0100919
0.0100485
0.0100167
0.00999537
0.00998314
0.00997849
0.00997956
0.00998509
0.00999454
0.0100069
0.0100214
0.0100372
0.0100537
0.0100703
0.0100868
0.0101027
0.0101178
0.0101319
0.0101448
0.0101565
0.010167
0.0101761
0.0101841
0.0101908
0.0101963
0.0102007
0.0102042
0.0102067
0.0102085
0.0102094
0.0102098
0.0102096
0.0102089
0.0102078
0.0102064
0.0102048
0.0102029
0.0102008
0.0101987
0.0101964
0.0101941
0.0101918
0.0101895
0.0101871
0.0101848
0.0101825
0.0101803
0.0101781
0.010176
0.0101739
0.0101718
0.0101698
0.0101678
0.0101659
0.0101641
0.0101622
0.0101604
0.0101587
0.010157
0.0101553
0.0101536
0.010152
0.0101503
0.0101487
0.0101472
0.0101456
0.0101441
0.0101425
0.010141
0.0101395
0.010138
0.0101366
0.0101351
0.0101337
0.0101323
0.0101309
0.0101295
0.0101282
0.0101269
0.0101256
0.0101244
0.0101232
0.010122
0.0101209
0.0101198
0.0101189
0.0101179
0.0101171
0.0101164
0.0101157
0.0101152
0.0101148
0.0101145
0.0101144
0.0101145
0.0101149
0.0101154
0.0101162
0.0101173
0.0101187
0.0101204
0.0101224
0.0101249
0.0101277
0.0101309
0.0101344
0.0101382
0.0101422
0.0101464
0.0101506
0.0101548
0.0101589
0.0101627
0.0101663
0.0101697
0.0101728
0.0101756
0.0101779
0.010181
0.0101929
0.0106838
0.0106472
0.0106486
0.0106591
0.0106741
0.0106935
0.0107156
0.0107368
0.0107516
0.0107558
0.01075
0.0107241
0.0106725
0.0105976
0.0105063
0.0104073
0.0103087
0.010217
0.0101366
0.0100698
0.0100171
0.00997797
0.00995127
0.00993546
0.0099289
0.00992934
0.00993511
0.00994538
0.00995923
0.00997565
0.00999375
0.0100128
0.0100323
0.0100516
0.0100704
0.0100885
0.0101055
0.0101213
0.0101358
0.0101489
0.0101605
0.0101708
0.0101797
0.0101873
0.0101936
0.0101987
0.0102027
0.0102058
0.010208
0.0102093
0.01021
0.01021
0.0102096
0.0102087
0.0102074
0.0102059
0.0102041
0.0102021
0.0101999
0.0101977
0.0101954
0.0101931
0.0101907
0.0101884
0.010186
0.0101837
0.0101814
0.0101792
0.010177
0.0101748
0.0101727
0.0101707
0.0101687
0.0101667
0.0101648
0.010163
0.0101612
0.0101594
0.0101576
0.0101559
0.0101542
0.0101526
0.0101509
0.0101493
0.0101478
0.0101462
0.0101447
0.0101432
0.0101417
0.0101402
0.0101388
0.0101374
0.010136
0.0101346
0.0101333
0.010132
0.0101307
0.0101295
0.0101283
0.0101271
0.010126
0.010125
0.010124
0.0101231
0.0101222
0.0101215
0.0101208
0.0101203
0.0101198
0.0101195
0.0101193
0.0101193
0.0101195
0.0101198
0.0101204
0.0101211
0.0101221
0.0101234
0.010125
0.0101268
0.010129
0.0101314
0.0101342
0.0101372
0.0101405
0.0101441
0.0101479
0.0101518
0.0101557
0.0101597
0.0101635
0.0101673
0.0101708
0.0101741
0.0101773
0.0101802
0.010183
0.0101853
0.0101885
0.010201
0.0106266
0.0105869
0.010588
0.0105988
0.0106147
0.0106362
0.0106618
0.0106879
0.0107081
0.0107153
0.0107095
0.0106835
0.0106277
0.010545
0.0104443
0.0103367
0.0102319
0.0101371
0.0100565
0.00999196
0.0099434
0.00990961
0.00988883
0.0098791
0.00987843
0.00988417
0.00989473
0.00990961
0.00992769
0.0099479
0.00996938
0.00999146
0.0100136
0.0100353
0.0100563
0.0100762
0.0100949
0.0101122
0.010128
0.0101423
0.0101551
0.0101663
0.0101761
0.0101844
0.0101914
0.0101971
0.0102016
0.0102051
0.0102077
0.0102094
0.0102103
0.0102106
0.0102104
0.0102096
0.0102085
0.010207
0.0102053
0.0102033
0.0102012
0.010199
0.0101967
0.0101943
0.010192
0.0101896
0.0101872
0.0101848
0.0101825
0.0101802
0.010178
0.0101758
0.0101737
0.0101716
0.0101695
0.0101676
0.0101656
0.0101637
0.0101619
0.0101601
0.0101583
0.0101565
0.0101548
0.0101532
0.0101516
0.0101499
0.0101484
0.0101468
0.0101453
0.0101438
0.0101424
0.0101409
0.0101395
0.0101382
0.0101368
0.0101355
0.0101343
0.010133
0.0101318
0.0101307
0.0101296
0.0101286
0.0101277
0.0101268
0.010126
0.0101252
0.0101246
0.0101241
0.0101236
0.0101233
0.0101232
0.0101232
0.0101233
0.0101236
0.0101241
0.0101248
0.0101258
0.0101269
0.0101284
0.01013
0.010132
0.0101342
0.0101367
0.0101394
0.0101424
0.0101457
0.0101491
0.0101527
0.0101564
0.0101602
0.010164
0.0101677
0.0101714
0.0101749
0.0101782
0.0101813
0.0101843
0.0101872
0.0101899
0.0101922
0.0101955
0.0102085
0.0105585
0.0105171
0.0105177
0.0105283
0.0105445
0.0105677
0.0105971
0.010629
0.0106563
0.0106697
0.0106647
0.0106393
0.0105802
0.0104896
0.0103792
0.0102631
0.0101527
0.0100558
0.00997634
0.00991549
0.00987233
0.00984485
0.00983069
0.00982745
0.00983257
0.00984356
0.009859
0.00987834
0.00990037
0.00992405
0.0099486
0.00997336
0.00999785
0.0100216
0.0100444
0.010066
0.0100861
0.0101047
0.0101217
0.010137
0.0101507
0.0101627
0.0101732
0.0101822
0.0101897
0.0101959
0.0102009
0.0102048
0.0102077
0.0102096
0.0102108
0.0102113
0.0102112
0.0102106
0.0102096
0.0102082
0.0102065
0.0102046
0.0102025
0.0102003
0.010198
0.0101956
0.0101932
0.0101908
0.0101884
0.010186
0.0101836
0.0101813
0.010179
0.0101768
0.0101746
0.0101724
0.0101704
0.0101683
0.0101664
0.0101644
0.0101626
0.0101607
0.0101589
0.0101572
0.0101555
0.0101538
0.0101521
0.0101505
0.010149
0.0101474
0.0101459
0.0101445
0.010143
0.0101416
0.0101403
0.0101389
0.0101376
0.0101364
0.0101352
0.0101341
0.010133
0.0101319
0.010131
0.0101301
0.0101292
0.0101285
0.0101278
0.0101273
0.0101268
0.0101265
0.0101263
0.0101262
0.0101263
0.0101266
0.010127
0.0101277
0.0101285
0.0101295
0.0101308
0.0101323
0.010134
0.010136
0.0101383
0.0101408
0.0101436
0.0101466
0.0101497
0.0101531
0.0101567
0.0101603
0.010164
0.0101677
0.0101714
0.010175
0.0101784
0.0101818
0.0101849
0.0101879
0.0101908
0.0101936
0.0101963
0.0101986
0.010202
0.0102153
0.0104788
0.0104377
0.0104375
0.0104469
0.0104625
0.0104868
0.0105198
0.0105583
0.0105948
0.0106175