/*--------------------------------*- C++ -*----------------------------------*\
  =========                 |
  \\      /  F ield         | OpenFOAM: The Open Source CFD Toolbox
   \\    /   O peration     | Website:  https://openfoam.org
    \\  /    A nd           | Version:  12
     \\/     M anipulation  |
\*---------------------------------------------------------------------------*/
FoamFile
{
    format      ascii;
    class       surfaceScalarField;
    location    "50";
    object      phi;
}
// * * * * * * * * * * * * * * * * * * * * * * * * * * * * * * * * * * * * * //

dimensions      [0 3 -1 0 0 0 0];

internalField   nonuniform List<scalar> 
8788
(
-2.64231e-08
2.6423e-08
1.05874e-08
-3.70105e-08
1.5436e-07
-1.43773e-07
4.49093e-07
-2.94733e-07
9.36337e-07
-4.87244e-07
1.65233e-06
-7.15994e-07
2.62566e-06
-9.73329e-07
3.87492e-06
-1.24926e-06
5.40655e-06
-1.53163e-06
7.21325e-06
-1.8067e-06
9.27337e-06
-2.06012e-06
1.15514e-05
-2.27803e-06
1.39997e-05
-2.44831e-06
1.65614e-05
-2.56165e-06
1.91736e-05
-2.61227e-06
2.17719e-05
-2.59826e-06
2.42933e-05
-2.52146e-06
2.66804e-05
-2.38702e-06
2.8883e-05
-2.20266e-06
3.08608e-05
-1.97782e-06
3.25837e-05
-1.72286e-06
3.4032e-05
-1.44829e-06
3.51961e-05
-1.16414e-06
3.60757e-05
-8.79522e-07
3.6678e-05
-6.0236e-07
3.70172e-05
-3.39146e-07
3.71119e-05
-9.47059e-08
3.69836e-05
1.28217e-07
3.66554e-05
3.28281e-07
3.61507e-05
5.04691e-07
3.54934e-05
6.57293e-07
3.4707e-05
7.86417e-07
3.38141e-05
8.92837e-07
3.28364e-05
9.77699e-07
3.1794e-05
1.04243e-06
3.07053e-05
1.08868e-06
2.95871e-05
1.1182e-06
2.84543e-05
1.13281e-06
2.732e-05
1.13436e-06
2.61953e-05
1.12462e-06
2.509e-05
1.10532e-06
2.40119e-05
1.07807e-06
2.29676e-05
1.04435e-06
2.19621e-05
1.00552e-06
2.09993e-05
9.62779e-07
2.00821e-05
9.17215e-07
1.92123e-05
8.69761e-07
1.83911e-05
8.21227e-07
1.76188e-05
7.72302e-07
1.68952e-05
7.23562e-07
1.62197e-05
6.75488e-07
1.55913e-05
6.2847e-07
1.50084e-05
5.82817e-07
1.44697e-05
5.38774e-07
1.39732e-05
4.96524e-07
1.3517e-05
4.562e-07
1.30991e-05
4.17891e-07
1.27174e-05
3.81651e-07
1.23699e-05
3.47502e-07
1.20545e-05
3.15441e-07
1.1769e-05
2.85443e-07
1.15116e-05
2.57467e-07
1.12801e-05
2.31456e-07
1.10728e-05
2.07343e-07
1.08877e-05
1.85052e-07
1.07232e-05
1.64499e-07
1.05776e-05
1.45596e-07
1.04494e-05
1.2825e-07
1.0337e-05
1.12367e-07
1.02391e-05
9.78499e-08
1.01545e-05
8.46026e-08
1.0082e-05
7.25285e-08
1.00205e-05
6.15321e-08
9.96896e-06
5.15191e-08
9.92656e-06
4.23973e-08
9.89249e-06
3.40764e-08
9.86602e-06
2.64686e-08
9.84653e-06
1.94887e-08
9.83347e-06
1.3054e-08
9.82639e-06
7.08516e-09
9.82488e-06
1.50745e-09
9.82863e-06
-3.75045e-09
9.8374e-06
-8.76402e-09
9.85101e-06
-1.3611e-08
9.86937e-06
-1.83654e-08
9.89247e-06
-2.31006e-08
9.92036e-06
-2.78906e-08
9.95318e-06
-3.28115e-08
9.99112e-06
-3.79416e-08
1.00345e-05
-4.33633e-08
1.00836e-05
-4.91637e-08
1.01391e-05
-5.54367e-08
1.02014e-05
-6.2284e-08
1.02712e-05
-6.98177e-08
1.03493e-05
-7.8162e-08
1.04368e-05
-8.74566e-08
1.05347e-05
-9.78595e-08
1.06442e-05
-1.09551e-07
1.0767e-05
-1.2274e-07
1.09046e-05
-1.37667e-07
1.10592e-05
-1.54614e-07
1.12331e-05
-1.73913e-07
1.14291e-05
-1.95956e-07
1.16503e-05
-2.21212e-07
1.19006e-05
-2.50242e-07
1.21843e-05
-2.83723e-07
1.25068e-05
-3.22479e-07
1.28743e-05
-3.67518e-07
1.32944e-05
-4.20083e-07
1.37761e-05
-4.81713e-07
1.43304e-05
-5.54334e-07
1.49708e-05
-6.40363e-07
1.57136e-05
-7.42854e-07
1.65793e-05
-8.65671e-07
1.7593e-05
-1.01371e-06
1.87862e-05
-1.19315e-06
2.01979e-05
-1.41176e-06
2.1877e-05
-1.67913e-06
2.38848e-05
-2.00776e-06
2.63046e-05
-2.41978e-06
2.92774e-05
-2.97277e-06
3.30854e-05
-3.80804e-06
3.82826e-05
-5.19718e-06
4.63397e-05
-8.05711e-06
6.45582e-05
-1.82185e-05
0.000127139
-6.25812e-05
6.74153e-05
-0.000161858
1.25391e-05
-0.000213836
-4.47395e-05
-0.000218638
-0.000109286
-0.000169242
-4.41228e-05
-6.51628e-05
-2.49908e-05
-1.9132e-05
-1.67405e-05
-8.25024e-06
-1.16721e-05
-5.06848e-06
-8.13971e-06
-3.53236e-06
-5.51056e-06
-2.62915e-06
-3.48032e-06
-2.03025e-06
-1.91279e-06
-1.56752e-06
-7.39958e-07
-1.17284e-06
-7.39958e-07
2.61471e-08
2.75876e-10
1.21542e-07
-1.32405e-07
3.43572e-07
-3.65803e-07
7.45075e-07
-6.96237e-07
1.37496e-06
-1.11713e-06
2.2756e-06
-1.61663e-06
3.48004e-06
-2.17777e-06
5.00925e-06
-2.77847e-06
6.86973e-06
-3.39211e-06
9.0518e-06
-3.98877e-06
1.1529e-05
-4.53736e-06
1.42591e-05
-5.0081e-06
1.71859e-05
-5.37509e-06
2.02428e-05
-5.61855e-06
2.33569e-05
-5.72636e-06
2.64533e-05
-5.6947e-06
2.94596e-05
-5.52773e-06
3.23092e-05
-5.23659e-06
3.49444e-05
-4.83783e-06
3.73182e-05
-4.35163e-06
3.93953e-05
-3.80003e-06
4.11524e-05
-3.20538e-06
4.25774e-05
-2.58907e-06
4.36684e-05
-1.97053e-06
4.44327e-05
-1.36666e-06
4.48848e-05
-7.91339e-07
4.50453e-05
-2.55133e-07
4.49382e-05
2.3532e-07
4.45898e-05
6.76664e-07
4.40274e-05
1.06707e-06
4.32788e-05
1.40596e-06
4.23713e-05
1.69389e-06
4.13317e-05
1.93239e-06
4.01856e-05
2.12382e-06
3.89569e-05
2.27115e-06
3.76678e-05
2.37782e-06
3.63384e-05
2.4476e-06
3.49868e-05
2.48437e-06
3.36291e-05
2.49209e-06
3.2279e-05
2.47463e-06
3.09487e-05
2.43571e-06
2.96479e-05
2.37885e-06
2.83849e-05
2.30732e-06
2.71663e-05
2.22409e-06
2.59973e-05
2.13185e-06
2.48815e-05
2.033e-06
2.38216e-05
1.92962e-06
2.28193e-05
1.82354e-06
2.18753e-05
1.7163e-06
2.09897e-05
1.60922e-06
2.01618e-05
1.50338e-06
1.93906e-05
1.39968e-06
1.86745e-05
1.29884e-06
1.80119e-05
1.20142e-06
1.74006e-05
1.10785e-06
1.68383e-05
1.01845e-06
1.63228e-05
9.33434e-07
1.58515e-05
8.5294e-07
1.5422e-05
7.7703e-07
1.50317e-05
7.05709e-07
1.46782e-05
6.38935e-07
1.4359e-05
5.76622e-07
1.40718e-05
5.18654e-07
1.38143e-05
4.64887e-07
1.35842e-05
4.15157e-07
1.33794e-05
3.69283e-07
1.31979e-05
3.27071e-07
1.30379e-05
2.8832e-07
1.28974e-05
2.5282e-07
1.27749e-05
2.2036e-07
1.26688e-05
1.90727e-07
1.25776e-05
1.63706e-07
1.25e-05
1.39087e-07
1.24349e-05
1.16661e-07
1.23811e-05
9.62236e-08
1.23376e-05
7.75742e-08
1.23035e-05
6.0518e-08
1.22781e-05
4.48657e-08
1.22608e-05
3.04337e-08
1.22508e-05
1.70452e-08
1.22478e-05
4.53128e-09
1.22513e-05
-7.2679e-09
1.22611e-05
-1.85177e-08
1.22768e-05
-2.93888e-08
1.22985e-05
-4.00464e-08
1.23261e-05
-5.06543e-08
1.23596e-05
-6.13775e-08
1.23991e-05
-7.23851e-08
1.2445e-05
-8.38517e-08
1.24976e-05
-9.59603e-08
1.25574e-05
-1.08905e-07
1.26248e-05
-1.22893e-07
1.27007e-05
-1.38152e-07
1.27858e-05
-1.54928e-07
1.28811e-05
-1.73498e-07
1.29879e-05
-1.9417e-07
1.31073e-05
-2.17294e-07
1.3241e-05
-2.43269e-07
1.33908e-05
-2.72554e-07
1.35588e-05
-3.05681e-07
1.37475e-05
-3.4327e-07
1.39596e-05
-3.86053e-07
1.41986e-05
-4.34893e-07
1.44682e-05
-4.90817e-07
1.4773e-05
-5.5506e-07
1.51184e-05
-6.29107e-07
1.55107e-05
-7.14765e-07
1.59574e-05
-8.14247e-07
1.64676e-05
-9.30279e-07
1.70521e-05
-1.06625e-06
1.77242e-05
-1.22641e-06
1.85e-05
-1.41614e-06
1.93994e-05
-1.64231e-06
2.04476e-05
-1.91384e-06
2.16764e-05
-2.24246e-06
2.31272e-05
-2.64399e-06
2.4856e-05
-3.14054e-06
2.69415e-05
-3.76465e-06
2.9502e-05
-4.56826e-06
3.27265e-05
-5.64426e-06
3.69305e-05
-7.17683e-06
4.26664e-05
-9.54392e-06
5.1e-05
-1.35308e-05
6.3976e-05
-2.10331e-05
8.30688e-05
-3.73113e-05
9.3922e-05
-7.34344e-05
6.15662e-05
-0.000129503
1.30065e-05
-0.000165277
-3.70443e-05
-0.000168587
-7.12967e-05
-0.00013499
-5.9634e-05
-7.68255e-05
-3.97772e-05
-3.89888e-05
-2.63437e-05
-2.16838e-05
-1.78227e-05
-1.35894e-05
-1.20963e-05
-9.25884e-06
-8.04246e-06
-6.68294e-06
-5.07505e-06
-4.99766e-06
-2.8657e-06
-3.77687e-06
-1.23255e-06
-2.80599e-06
-1.9725e-06
7.59888e-08
-7.5713e-08
2.30474e-07
-2.86891e-07
5.26509e-07
-6.61837e-07
1.0246e-06
-1.19433e-06
1.78023e-06
-1.87276e-06
2.84128e-06
-2.67768e-06
4.24485e-06
-3.58134e-06
6.01411e-06
-4.54774e-06
8.15556e-06
-5.53356e-06
1.06572e-05
-6.49045e-06
1.34883e-05
-7.36837e-06
1.65998e-05
-8.11966e-06
1.99279e-05
-8.70322e-06
2.33974e-05
-9.08798e-06
2.69264e-05
-9.25535e-06
3.04316e-05
-9.19996e-06
3.38331e-05
-8.92917e-06
3.70577e-05
-8.46122e-06
4.00425e-05
-7.82267e-06
4.27365e-05
-7.04563e-06
4.51014e-05
-6.16489e-06
4.71116e-05
-5.2156e-06
4.87538e-05
-4.23123e-06
5.00255e-05
-3.24222e-06
5.09337e-05
-2.27493e-06
5.14935e-05
-1.35114e-06
5.1726e-05
-4.87575e-07
5.16568e-05
3.04543e-07
5.13143e-05
1.01915e-06
5.07282e-05
1.65316e-06
4.99287e-05
2.20542e-06
4.8946e-05
2.67655e-06
4.78097e-05
3.06877e-06
4.65479e-05
3.38561e-06
4.51874e-05
3.63161e-06
4.37531e-05
3.81209e-06
4.22679e-05
3.9329e-06
4.07521e-05
4.00014e-06
3.92242e-05
4.02001e-06
3.77001e-05
3.99866e-06
3.61938e-05
3.94201e-06
3.4717e-05
3.85567e-06
3.32794e-05
3.74489e-06
3.1889e-05
3.61449e-06
3.05521e-05
3.4688e-06
2.92734e-05
3.31173e-06
2.80563e-05
3.14671e-06
2.69031e-05
2.97672e-06
2.58151e-05
2.80433e-06
2.47926e-05
2.63172e-06
2.38352e-05
2.46072e-06
2.29421e-05
2.29282e-06
2.21117e-05
2.12926e-06
2.13421e-05
1.97098e-06
2.06312e-05
1.81875e-06
1.99765e-05
1.6731e-06
1.93755e-05
1.53444e-06
1.88255e-05
1.40301e-06
1.83236e-05
1.27895e-06
1.7867e-05
1.16229e-06
1.74529e-05
1.05297e-06
1.70787e-05
9.50885e-07
1.67415e-05
8.5585e-07
1.64387e-05
7.67647e-07
1.61679e-05
6.86016e-07
1.59265e-05
6.10671e-07
1.57122e-05
5.41303e-07
1.5523e-05
4.77587e-07
1.53566e-05
4.19188e-07
1.52112e-05
3.65762e-07
1.5085e-05
3.16965e-07
1.49762e-05
2.7245e-07
1.48834e-05
2.31874e-07
1.48052e-05
1.94896e-07
1.47402e-05
1.61185e-07
1.46874e-05
1.30412e-07
1.46457e-05
1.02261e-07
1.46141e-05
7.6421e-08
1.45919e-05
5.25931e-08
1.45785e-05
3.04872e-08
1.45732e-05
9.82488e-09
1.45756e-05
-9.65799e-09
1.45853e-05
-2.82293e-08
1.46021e-05
-4.61645e-08
1.46258e-05
-6.37332e-08
1.46563e-05
-8.12034e-08
1.46938e-05
-9.88454e-08
1.47383e-05
-1.16935e-07
1.47902e-05
-1.35758e-07
1.48499e-05
-1.55611e-07
1.49178e-05
-1.76811e-07
1.49946e-05
-1.99695e-07
1.50811e-05
-2.24631e-07
1.51782e-05
-2.52019e-07
1.5287e-05
-2.82307e-07
1.54088e-05
-3.15992e-07
1.55451e-05
-3.53638e-07
1.56978e-05
-3.95886e-07
1.58687e-05
-4.43476e-07
1.60603e-05
-4.97258e-07
1.62752e-05
-5.58229e-07
1.65167e-05
-6.27554e-07
1.67884e-05
-7.06609e-07
1.70947e-05
-7.97032e-07
1.74404e-05
-9.0078e-07
1.78315e-05
-1.02021e-06
1.82749e-05
-1.15819e-06
1.87789e-05
-1.3182e-06
1.93531e-05
-1.50457e-06
2.00095e-05
-1.72264e-06
2.07623e-05
-1.97915e-06
2.16288e-05
-2.28266e-06
2.26307e-05
-2.64417e-06
2.3795e-05
-3.07817e-06
2.51565e-05
-3.60402e-06
2.6761e-05
-4.24848e-06
2.86704e-05
-5.04987e-06
3.09713e-05
-6.06563e-06
3.37897e-05
-7.38665e-06
3.73107e-05
-9.1652e-06
4.18023e-05
-1.16685e-05
4.76329e-05
-1.53745e-05
5.52441e-05
-2.11419e-05
6.47679e-05
-3.05569e-05
7.39593e-05
-4.65027e-05
7.31514e-05
-7.26265e-05
5.01944e-05
-0.000106546
1.41125e-05
-0.000129195
-2.29596e-05
-0.000131515
-4.72349e-05
-0.000110715
-4.80783e-05
-7.59821e-05
-3.84138e-05
-4.86533e-05
-2.8379e-05
-3.17186e-05
-2.03808e-05
-2.15875e-05
-1.43206e-05
-1.53191e-05
-9.74901e-06
-1.12545e-05
-6.27944e-06
-8.46722e-06
-3.62636e-06
-6.42996e-06
-1.58632e-06
-4.84603e-06
-3.55882e-06
1.15111e-07
-1.90824e-07
3.15762e-07
-4.87542e-07
6.70582e-07
-1.01666e-06
1.2464e-06
-1.77015e-06
2.1049e-06
-2.73127e-06
3.29947e-06
-3.87225e-06
4.87145e-06
-5.15332e-06
6.84644e-06
-6.52272e-06
9.23115e-06
-7.91827e-06
1.20114e-05
-9.27068e-06
1.51515e-05
-1.05085e-05
1.85961e-05
-1.15642e-05
2.22728e-05
-1.23799e-05
2.60974e-05
-1.29126e-05
2.99794e-05
-1.31373e-05
3.38274e-05
-1.3048e-05
3.7555e-05
-1.26567e-05
4.10839e-05
-1.19901e-05
4.43477e-05
-1.10866e-05
4.72935e-05
-9.99139e-06
4.98819e-05
-8.7533e-06
5.20873e-05
-7.42099e-06
5.38967e-05
-6.04057e-06
5.53081e-05
-4.6537e-06
5.63296e-05
-3.29636e-06
5.69767e-05
-1.99823e-06
5.72713e-05
-7.82248e-07
5.72402e-05
3.35628e-07
5.69131e-05
1.34634e-06
5.63209e-05
2.24533e-06
5.54956e-05
3.03075e-06
5.44689e-05
3.7032e-06
5.32722e-05
4.26552e-06
5.19354e-05
4.72239e-06
5.04871e-05
5.07992e-06
4.89539e-05
5.34531e-06
4.73602e-05
5.52652e-06
4.57285e-05
5.6319e-06
4.40785e-05
5.66999e-06
4.24279e-05
5.64925e-06
4.0792e-05
5.5779e-06
3.91839e-05
5.46377e-06
3.76146e-05
5.31418e-06
3.60932e-05
5.1359e-06
3.4627e-05
4.93507e-06
3.32215e-05
4.71721e-06
3.1881e-05
4.48721e-06
3.06083e-05
4.24936e-06
2.94053e-05
4.00734e-06
2.82727e-05
3.76432e-06
2.72105e-05
3.52296e-06
2.62178e-05
3.28547e-06
2.52935e-05
3.05364e-06
2.44355e-05
2.82893e-06
2.36418e-05
2.61244e-06
2.29099e-05
2.40503e-06
2.2237e-05
2.20731e-06
2.16204e-05
2.01968e-06
2.10569e-05
1.84238e-06
2.05437e-05
1.67549e-06
2.00777e-05
1.51897e-06
1.96559e-05
1.37267e-06
1.92754e-05
1.23637e-06
1.89333e-05
1.10978e-06
1.86268e-05
9.92541e-07
1.83532e-05
8.84258e-07
1.811e-05
7.84502e-07
1.78947e-05
6.9282e-07
1.77052e-05
6.0874e-07
1.75392e-05
5.31779e-07
1.73947e-05
4.61447e-07
1.72699e-05
3.97256e-07
1.7163e-05
3.38715e-07
1.70726e-05
2.85344e-07
1.69971e-05
2.36668e-07
1.69353e-05
1.9222e-07
1.6886e-05
1.51548e-07
1.68482e-05
1.14209e-07
1.68211e-05
7.97755e-08
1.68037e-05
4.78312e-08
1.67956e-05
1.79763e-08
1.67961e-05
-1.01713e-08
1.68048e-05
-3.69919e-08
1.68215e-05
-6.2874e-08
1.6846e-05
-8.82021e-08
1.68782e-05
-1.13359e-07
1.69181e-05
-1.38731e-07
1.69658e-05
-1.64711e-07
1.70218e-05
-1.91705e-07
1.70863e-05
-2.20137e-07
1.71599e-05
-2.50455e-07
1.72434e-05
-2.83137e-07
1.73375e-05
-3.18702e-07
1.74432e-05
-3.57715e-07
1.75617e-05
-4.00805e-07
1.76943e-05
-4.48671e-07
1.78428e-05
-5.02101e-07
1.80089e-05
-5.61993e-07
1.81948e-05
-6.29374e-07
1.8403e-05
-7.0543e-07
1.86363e-05
-7.91539e-07
1.8898e-05
-8.89311e-07
1.91921e-05
-1.00064e-06
1.95228e-05
-1.12779e-06
1.98955e-05
-1.27342e-06
2.0316e-05
-1.44077e-06
2.07916e-05
-1.63372e-06
2.13304e-05
-1.85703e-06
2.19423e-05
-2.11652e-06
2.26391e-05
-2.41943e-06
2.34348e-05
-2.77484e-06
2.43464e-05
-3.19427e-06
2.53948e-05
-3.69255e-06
2.66058e-05
-4.28916e-06
2.80119e-05
-5.01015e-06
2.96548e-05
-5.89134e-06
3.15883e-05
-6.98341e-06
3.38831e-05
-8.36043e-06
3.66308e-05
-1.01343e-05
3.99444e-05
-1.24789e-05
4.39455e-05
-1.56696e-05
4.87126e-05
-2.01416e-05
5.41363e-05
-2.65656e-05
5.95097e-05
-3.59304e-05
6.2526e-05
-4.95191e-05
5.8069e-05
-6.81694e-05
4.0801e-05
-8.92776e-05
1.50749e-05
-0.000103469
-1.1347e-05
-0.000105093
-2.9616e-05
-9.24458e-05
-3.43692e-05
-7.12289e-05
-3.11568e-05
-5.18657e-05
-2.53897e-05
-3.74857e-05
-1.95535e-05
-2.74238e-05
-1.44419e-05
-2.04307e-05
-1.02002e-05
-1.54961e-05
-6.75889e-06
-1.19086e-05
-3.99284e-06
-9.19601e-06
-1.77676e-06
-7.0621e-06
-5.33558e-06
1.36724e-07
-3.27548e-07
3.63635e-07
-7.14452e-07
7.54984e-07
-1.40801e-06
1.38402e-06
-2.39919e-06
2.31896e-06
-3.6662e-06
3.61918e-06
-5.17247e-06
5.33087e-06
-6.86501e-06
7.48261e-06
-8.67446e-06
1.00816e-05
-1.05173e-05
1.31114e-05
-1.23004e-05
1.65311e-05
-1.39282e-05
2.02774e-05
-1.53106e-05
2.42686e-05
-1.63711e-05
2.84103e-05
-1.70543e-05
3.26021e-05
-1.73291e-05
3.67444e-05
-1.71904e-05
4.07442e-05
-1.66564e-05
4.45192e-05
-1.57651e-05
4.80009e-05
-1.45683e-05
5.11361e-05
-1.31266e-05
5.38865e-05
-1.15037e-05
5.62284e-05
-9.76285e-06
5.81509e-05
-7.96309e-06
5.96546e-05
-6.15735e-06
6.07492e-05
-4.39104e-06
6.14524e-05
-2.70135e-06
6.17872e-05
-1.11709e-06
6.17814e-05
3.41421e-07
6.14655e-05
1.66225e-06
6.08715e-05
2.83931e-06
6.00322e-05
3.87003e-06
5.89804e-05
4.75502e-06
5.77481e-05
5.49778e-06
5.63664e-05
6.10412e-06
5.48646e-05
6.58176e-06
5.32701e-05
6.93976e-06
5.16084e-05
7.18819e-06
4.99027e-05
7.33765e-06
4.81737e-05
7.39899e-06
4.64399e-05
7.38302e-06
4.47176e-05
7.30024e-06
4.30206e-05
7.16071e-06
4.13609e-05
6.97388e-06
3.97484e-05
6.74849e-06
3.81909e-05
6.49252e-06
3.66949e-05
6.2132e-06
3.52652e-05
5.91692e-06
3.39052e-05
5.60933e-06
3.26172e-05
5.29535e-06
3.14024e-05
4.97916e-06
3.0261e-05
4.66436e-06
2.91926e-05
4.3539e-06
2.8196e-05
4.05025e-06
2.72695e-05
3.75537e-06
2.64111e-05
3.47083e-06
2.56183e-05
3.19781e-06
2.48885e-05
2.93719e-06
2.42186e-05
2.68957e-06
2.36056e-05
2.45531e-06
2.30466e-05
2.23456e-06
2.25382e-05
2.02732e-06
2.20774e-05
1.83345e-06
2.16611e-05
1.65268e-06
2.12863e-05
1.48464e-06
2.09499e-05
1.32889e-06
2.06492e-05
1.18494e-06
2.03815e-05
1.05224e-06
2.01441e-05
9.302e-07
1.99347e-05
8.18207e-07
1.97508e-05
7.15636e-07
1.95904e-05
6.21848e-07
1.94514e-05
5.36201e-07
1.93321e-05
4.58055e-07
1.92307e-05
3.86777e-07
1.91456e-05
3.21743e-07
1.90755e-05
2.62339e-07
1.90191e-05
2.07968e-07
1.89752e-05
1.58046e-07
1.8943e-05
1.12006e-07
1.89215e-05
6.93e-08
1.89101e-05
2.93952e-08
1.89082e-05
-8.21892e-09
1.89152e-05
-4.40424e-08
1.89309e-05
-7.85812e-08
1.89551e-05
-1.12343e-07
1.89875e-05
-1.45832e-07
1.90284e-05
-1.79559e-07
1.90777e-05
-2.1404e-07
1.91358e-05
-2.49809e-07
1.92031e-05
-2.87421e-07
1.92801e-05
-3.27463e-07
1.93675e-05
-3.7056e-07
1.94662e-05
-4.17385e-07
1.95771e-05
-4.68675e-07
1.97016e-05
-5.25241e-07
1.98409e-05
-5.87988e-07
1.99967e-05
-6.57931e-07
2.0171e-05
-7.36221e-07
2.03658e-05
-8.24172e-07
2.05836e-05
-9.23295e-07
2.08274e-05
-1.03534e-06
2.11005e-05
-1.16235e-06
2.14065e-05
-1.30672e-06
2.175e-05
-1.47126e-06
2.21359e-05
-1.65934e-06
2.25701e-05
-1.87496e-06
2.30593e-05
-2.12295e-06
2.36115e-05
-2.40917e-06
2.42357e-05
-2.74078e-06
2.49429e-05
-3.1266e-06
2.57457e-05
-3.57766e-06
2.66593e-05
-4.10785e-06
2.77017e-05
-4.73493e-06
2.88945e-05
-5.48197e-06
3.02638e-05
-6.37943e-06
3.18408e-05
-7.46839e-06
3.36627e-05
-8.80532e-06
3.57718e-05
-1.04695e-05
3.82116e-05
-1.2574e-05
4.10146e-05
-1.52819e-05
4.41725e-05
-1.88275e-05
4.75701e-05
-2.35391e-05
5.08556e-05
-2.98511e-05
5.31992e-05
-3.82739e-05
5.2918e-05
-4.92379e-05
4.73058e-05
-6.25572e-05
3.41525e-05
-7.61243e-05
1.58276e-05
-8.51437e-05
-2.98884e-06
-8.62765e-05
-1.68595e-05
-7.85751e-05
-2.28198e-05
-6.52687e-05
-2.30752e-05
-5.16103e-05
-2.04749e-05
-4.0086e-05
-1.6832e-05
-3.10667e-05
-1.30677e-05
-2.41951e-05
-9.58935e-06
-1.89745e-05
-6.54222e-06
-1.49557e-05
-3.94928e-06
-1.17889e-05
-1.78265e-06
-9.22874e-06
-7.11823e-06
1.35679e-07
-4.63227e-07
3.63299e-07
-9.42072e-07
7.6357e-07
-1.80828e-06
1.41703e-06
-3.05265e-06
2.39933e-06
-4.64849e-06
3.77685e-06
-6.54999e-06
5.60161e-06
-8.68977e-06
7.90596e-06
-1.09788e-05
1.06981e-05
-1.33094e-05
1.39588e-05
-1.55612e-05
1.76412e-05
-1.76106e-05
2.16724e-05
-1.93418e-05
2.59593e-05
-2.0658e-05
3.03952e-05
-2.14901e-05
3.48683e-05
-2.18022e-05
3.92696e-05
-2.15916e-05
4.34992e-05
-2.08861e-05
4.74716e-05
-1.97374e-05
5.11172e-05
-1.8214e-05
5.43842e-05
-1.63936e-05
5.72375e-05
-1.4357e-05
5.96572e-05
-1.21825e-05
6.16367e-05
-9.94266e-06
6.31808e-05
-7.70139e-06
6.43028e-05
-5.51304e-06
6.50231e-05
-3.4217e-06
6.53673e-05
-1.46122e-06
6.53642e-05
3.4447e-07
6.50453e-05
1.98114e-06
6.44434e-05
3.44126e-06
6.35917e-05
4.72172e-06
6.25234e-05
5.82332e-06
6.12709e-05
6.75032e-06
5.98652e-05
7.50982e-06
5.83358e-05
8.11114e-06
5.67103e-05
8.56529e-06
5.50141e-05
8.88439e-06
5.32704e-05
9.08129e-06
5.15003e-05
9.16909e-06
4.97225e-05
9.16087e-06
4.79533e-05
9.06939e-06
4.62072e-05
8.90687e-06
4.44962e-05
8.68482e-06
4.28308e-05
8.41394e-06
4.12192e-05
8.10405e-06
3.96684e-05
7.76402e-06
3.81835e-05
7.4018e-06
3.67685e-05
7.02441e-06
3.54258e-05
6.63797e-06
3.41572e-05
6.24779e-06
3.29632e-05
5.85837e-06
3.18436e-05
5.4735e-06
3.07975e-05
5.09633e-06
2.98235e-05
4.72941e-06
2.89195e-05
4.37476e-06
2.80834e-05
4.03396e-06
2.73124e-05
3.70819e-06
2.66037e-05
3.39826e-06
2.59543e-05
3.1047e-06
2.53611e-05
2.82778e-06
2.48209e-05
2.56753e-06
2.43305e-05
2.32383e-06
2.38868e-05
2.09638e-06
2.34867e-05
1.88478e-06
2.3127e-05
1.68851e-06
2.2805e-05
1.50696e-06
2.25178e-05
1.33947e-06
2.22627e-05
1.18533e-06
2.20371e-05
1.04378e-06
2.18387e-05
9.14065e-07
2.16651e-05
7.95383e-07
2.15144e-05
6.86943e-07
2.13845e-05
5.87949e-07
2.12737e-05
4.97612e-07
2.11803e-05
4.15154e-07
2.11028e-05
3.39811e-07
2.10399e-05
2.70833e-07
2.09905e-05
2.07493e-07
2.09534e-05
1.4908e-07
2.09278e-05
9.49042e-08
2.09129e-05
4.42974e-08
2.09081e-05
-3.38968e-09
2.09128e-05
-4.878e-08
2.09267e-05
-9.2498e-08
2.09496e-05
-1.3518e-07
2.09812e-05
-1.77459e-07
2.10216e-05
-2.1997e-07
2.10709e-05
-2.63356e-07
2.11294e-05
-3.08284e-07
2.11974e-05
-3.55441e-07
2.12755e-05
-4.05555e-07
2.13643e-05
-4.59396e-07
2.14647e-05
-5.17796e-07
2.15777e-05
-5.81658e-07
2.17045e-05
-6.51974e-07
2.18463e-05
-7.29849e-07
2.20049e-05
-8.16514e-07
2.21821e-05
-9.13365e-07
2.23799e-05
-1.02199e-06
2.26008e-05
-1.14419e-06
2.28475e-05
-1.28207e-06
2.31232e-05
-1.43807e-06
2.34315e-05
-1.615e-06
2.37764e-05
-1.81621e-06
2.41627e-05
-2.04563e-06
2.45957e-05
-2.30793e-06
2.50815e-05
-2.60871e-06
2.5627e-05
-2.95472e-06
2.62404e-05
-3.35413e-06
2.69307e-05
-3.81696e-06
2.77086e-05
-4.35558e-06
2.85862e-05
-4.98541e-06
2.95772e-05
-5.72594e-06
3.06973e-05
-6.60201e-06
3.19636e-05
-7.64577e-06
3.33946e-05
-8.89939e-06
3.5008e-05
-1.04187e-05
3.68172e-05
-1.22787e-05
3.88228e-05
-1.45796e-05
4.09966e-05
-1.74558e-05
4.32512e-05
-2.1082e-05
4.53869e-05
-2.56748e-05
4.70098e-05
-3.14741e-05
4.74193e-05
-3.86834e-05
4.55057e-05
-4.73243e-05
3.98659e-05
-5.69174e-05
2.96972e-05
-6.59557e-05
1.63998e-05
-7.18464e-05
2.78267e-06
-7.26593e-05
-7.87664e-06
-6.79158e-05
-1.38418e-05
-5.93036e-05
-1.58167e-05
-4.96354e-05
-1.52558e-05
-4.06468e-05
-1.33503e-05
-3.29721e-05
-1.08755e-05
-2.66699e-05
-8.28258e-06
-2.15674e-05
-5.81148e-06
-1.74268e-05
-3.57829e-06
-1.40221e-05
-1.63323e-06
-1.11738e-05
-8.75146e-06
1.08673e-07
-5.719e-07
3.07612e-07
-1.14101e-06
6.8561e-07
-2.18628e-06
1.33189e-06
-3.69893e-06
2.3309e-06
-5.6475e-06
3.75742e-06
-7.9765e-06
5.67059e-06
-1.06029e-05
8.10758e-06
-1.34158e-05
1.10779e-05
-1.62797e-05
1.45594e-05
-1.90427e-05
1.84975e-05
-2.15487e-05
2.28079e-05
-2.36522e-05
2.7383e-05
-2.52331e-05
3.21012e-05
-2.62084e-05
3.6837e-05
-2.6538e-05
4.14706e-05
-2.62252e-05
4.58951e-05
-2.53106e-05
5.00216e-05
-2.38639e-05
5.37813e-05
-2.19736e-05
5.71254e-05
-1.97377e-05
6.00238e-05
-1.72554e-05
6.24629e-05
-1.46216e-05
6.44424e-05
-1.19222e-05
6.59729e-05
-9.2319e-06
6.70731e-05
-6.61325e-06
6.77676e-05
-4.1162e-06
6.8085e-05
-1.77857e-06
6.80561e-05
3.73329e-07
6.77135e-05
2.32377e-06
6.70905e-05
4.0642e-06
6.62209e-05
5.5913e-06
6.51379e-05
6.9064e-06
6.38734e-05
8.01482e-06
6.2458e-05
8.92513e-06
6.09208e-05
9.64842e-06
5.92884e-05
1.01977e-05
5.75857e-05
1.05871e-05
5.58353e-05
1.08317e-05
5.40577e-05
1.09468e-05
5.22709e-05
1.09476e-05
5.04912e-05
1.08491e-05
4.87326e-05
1.06654e-05
4.70073e-05
1.04102e-05
4.53254e-05
1.00958e-05
4.36954e-05
9.73398e-06
4.21244e-05
9.33507e-06
4.06177e-05
8.90853e-06
3.91794e-05
8.46272e-06
3.78124e-05
8.00497e-06
3.65185e-05
7.54164e-06
3.52987e-05
7.0782e-06
3.41529e-05
6.61924e-06
3.30806e-05
6.16862e-06
3.20806e-05
5.72949e-06
3.11509e-05
5.30437e-06
3.02897e-05
4.89525e-06
2.94942e-05
4.50362e-06
2.87619e-05
4.13056e-06
2.80899e-05
3.77677e-06
2.7475e-05
3.44265e-06
2.69142e-05
3.12832e-06
2.64043e-05
2.83368e-06
2.59423e-05
2.55844e-06
2.55249e-05
2.30214e-06
2.51492e-05
2.0642e-06
2.48123e-05
1.84393e-06
2.45112e-05
1.64057e-06
2.42432e-05
1.45328e-06
2.40058e-05
1.28117e-06
2.37965e-05
1.12334e-06
2.36131e-05
9.78852e-07
2.34533e-05
8.46751e-07
2.33151e-05
7.26092e-07
2.31968e-05
6.15931e-07
2.30966e-05
5.15337e-07
2.3013e-05
4.2339e-07
2.29447e-05
3.39194e-07
2.28903e-05
2.6187e-07
2.28488e-05
1.90563e-07
2.28193e-05
1.24442e-07
2.28009e-05
6.26983e-08
2.27929e-05
4.54422e-09
2.27949e-05
-5.07714e-08
2.28064e-05
-1.03996e-07
2.28271e-05
-1.55893e-07
2.28569e-05
-2.07222e-07
2.28957e-05
-2.58745e-07
2.29436e-05
-3.11234e-07
2.30008e-05
-3.65483e-07
2.30676e-05
-4.22315e-07
2.31447e-05
-4.82592e-07
2.32325e-05
-5.4723e-07
2.33319e-05
-6.17211e-07
2.34439e-05
-6.93599e-07
2.35694e-05
-7.77557e-07
2.371e-05
-8.70376e-07
2.38669e-05
-9.73491e-07
2.40421e-05
-1.08852e-06
2.42374e-05
-1.21728e-06
2.44551e-05
-1.36188e-06
2.46977e-05
-1.52468e-06
2.49681e-05
-1.70847e-06
2.52695e-05
-1.91645e-06
2.56057e-05
-2.15235e-06
2.59806e-05
-2.42058e-06
2.6399e-05
-2.72631e-06
2.6866e-05
-3.07571e-06
2.73874e-05
-3.47613e-06
2.79697e-05
-3.93642e-06
2.862e-05
-4.46729e-06
2.93463e-05
-5.0818e-06
3.01569e-05
-5.79601e-06
3.10608e-05
-6.62983e-06
3.20669e-05
-7.60815e-06
3.31834e-05
-8.76231e-06
3.44161e-05
-1.01321e-05
3.57654e-05
-1.17681e-05
3.72215e-05
-1.37347e-05
3.87548e-05
-1.61129e-05
4.03016e-05
-1.90026e-05
4.17404e-05
-2.25209e-05
4.28578e-05
-2.67922e-05
4.33061e-05
-3.19224e-05
4.25651e-05
-3.79424e-05
3.99464e-05
-4.47056e-05
3.47484e-05
-5.17194e-05
2.67465e-05
-5.79538e-05
1.68377e-05
-6.19375e-05
6.73687e-06
-6.25585e-05
-1.61098e-06
-5.95679e-05
-7.0792e-06
-5.38353e-05
-9.79071e-06
-4.69239e-05
-1.045e-05
-3.99876e-05
-9.7896e-06
-3.36325e-05
-8.38331e-06
-2.80762e-05
-6.62856e-06
-2.33221e-05
-4.78116e-06
-1.92742e-05
-2.99926e-06
-1.5804e-05
-1.3816e-06
-1.27915e-05
-1.01331e-05
5.3838e-08
-6.25738e-07
1.92248e-07
-1.27942e-06
5.14678e-07
-2.50871e-06
1.12057e-06
-4.30483e-06
2.10486e-06
-6.63179e-06
3.55235e-06
-9.42399e-06
5.53088e-06
-1.25815e-05
8.08366e-06
-1.59686e-05
1.1222e-05
-1.9418e-05
1.49204e-05
-2.2741e-05
1.91147e-05
-2.57431e-05
2.37063e-05
-2.82438e-05
2.857e-05
-3.00967e-05
3.35656e-05
-3.1204e-05
3.85515e-05
-3.15239e-05
4.33953e-05
-3.1069e-05
4.79828e-05
-2.98981e-05
5.22226e-05
-2.81037e-05
5.60478e-05
-2.57988e-05
5.9415e-05
-2.31048e-05
6.23014e-05
-2.01418e-05
6.47016e-05
-1.70218e-05
6.66238e-05
-1.38444e-05
6.80864e-05
-1.06945e-05
6.91148e-05
-7.64163e-06
6.97389e-05
-4.74036e-06
6.99914e-05
-2.03104e-06
6.99056e-05
4.59119e-07
6.95154e-05
2.71398e-06
6.8855e-05
4.72456e-06
6.79584e-05
6.48793e-06
6.68583e-05
8.00647e-06
6.55862e-05
9.28698e-06
6.41715e-05
1.03398e-05
6.26419e-05
1.1178e-05
6.10229e-05
1.18167e-05
5.93379e-05
1.22721e-05
5.76081e-05
1.25614e-05
5.58528e-05
1.27021e-05
5.40891e-05
1.27113e-05
5.23321e-05
1.2606e-05
5.05952e-05
1.24023e-05
4.88899e-05
1.21155e-05
4.72259e-05
1.17598e-05
4.56115e-05
1.13484e-05
4.40535e-05
1.08931e-05
4.25571e-05
1.04049e-05
4.11265e-05
9.89328e-06
3.97648e-05
9.3667e-06
3.84739e-05
8.83257e-06
3.72548e-05
8.29724e-06
3.61079e-05
7.76612e-06
3.50328e-05
7.24375e-06
3.40284e-05
6.73386e-06
3.30933e-05
6.2395e-06
3.22255e-05
5.76306e-06
3.14227e-05
5.30638e-06
3.06825e-05
4.87079e-06
3.00021e-05
4.45721e-06
2.93785e-05
4.06618e-06
2.88089e-05
3.69792e-06
2.82903e-05
3.35237e-06
2.78194e-05
3.02926e-06
2.73935e-05
2.72811e-06
2.70094e-05
2.44829e-06
2.66643e-05
2.18904e-06
2.63553e-05
1.94949e-06
2.60799e-05
1.72871e-06
2.58354e-05
1.52569e-06
2.56194e-05
1.33937e-06
2.54295e-05
1.16869e-06
2.52637e-05
1.01256e-06
2.51199e-05
8.69863e-07
2.49964e-05
7.39522e-07
2.48912e-05
6.20448e-07
2.48031e-05
5.11576e-07
2.47304e-05
4.11856e-07
2.4672e-05
3.20267e-07
2.46268e-05
2.35808e-07
2.45937e-05
1.57509e-07
2.4572e-05
8.44226e-08
2.45609e-05
1.56281e-08
2.45599e-05
-4.97594e-08
2.45685e-05
-1.12614e-07
2.45864e-05
-1.73822e-07
2.46135e-05
-2.34264e-07
2.46495e-05
-2.94826e-07
2.46947e-05
-3.56407e-07
2.47492e-05
-4.19925e-07
2.48132e-05
-4.86331e-07
2.48872e-05
-5.56621e-07
2.49718e-05
-6.31843e-07
2.50677e-05
-7.13123e-07
2.51758e-05
-8.01671e-07
2.52971e-05
-8.98812e-07
2.54327e-05
-1.006e-06
2.5584e-05
-1.12485e-06
2.57527e-05
-1.25718e-06
2.59404e-05
-1.40502e-06
2.61492e-05
-1.57068e-06
2.63813e-05
-1.75679e-06
2.66393e-05
-1.9664e-06
2.69258e-05
-2.20298e-06
2.7244e-05
-2.47059e-06
2.75974e-05
-2.77394e-06
2.79896e-05
-3.11855e-06
2.84249e-05
-3.51092e-06
2.89075e-05
-3.95874e-06
2.94422e-05
-4.47114e-06
3.00339e-05
-5.05905e-06
3.06877e-05
-5.73557e-06
3.14083e-05
-6.51658e-06
3.21998e-05
-7.42131e-06
3.30648e-05
-8.47323e-06
3.40036e-05
-9.70103e-06
3.50113e-05
-1.11398e-05
3.60755e-05
-1.28322e-05
3.71705e-05
-1.48297e-05
3.825e-05
-1.71924e-05
3.92354e-05
-1.99881e-05
4.00006e-05
-2.32861e-05
4.03537e-05
-2.71452e-05
4.00198e-05
-3.15885e-05
3.86391e-05
-3.65617e-05
3.58025e-05
-4.18691e-05
3.11766e-05
-4.70935e-05
2.47625e-05
-5.15397e-05
1.71644e-05
-5.43394e-05
9.44857e-06
-5.48427e-05
2.78676e-06
-5.29061e-05
-2.04965e-06
-4.89989e-05
-4.984e-06
-4.39895e-05
-6.3281e-06
-3.86435e-05
-6.51038e-06
-3.34502e-05
-5.92628e-06
-2.86603e-05
-4.89059e-06
-2.43578e-05
-3.63498e-06
-2.05298e-05
-2.32473e-06
-1.71143e-05
-1.08031e-06
-1.40359e-05
-1.12134e-05
-3.0651e-08
-5.95087e-07
1.46999e-08
-1.32477e-06
2.47011e-07
-2.74102e-06
7.78511e-07
-4.83633e-06
1.71626e-06
-7.56954e-06
3.15691e-06
-1.08646e-05
5.17876e-06
-1.46033e-05
7.83252e-06
-1.86223e-05
1.11321e-05
-2.27176e-05
1.50477e-05
-2.66567e-05
1.95041e-05
-3.01994e-05
2.43844e-05
-3.31242e-05
2.95418e-05
-3.52541e-05
3.48141e-05
-3.64762e-05
4.00399e-05
-3.67497e-05
4.5073e-05
-3.61021e-05
4.97916e-05
-3.46167e-05
5.41031e-05
-3.24152e-05
5.79444e-05
-2.96402e-05
6.12798e-05
-2.64402e-05
6.40964e-05
-2.29584e-05
6.63994e-05
-1.93248e-05
6.82075e-05
-1.56525e-05
6.95485e-05
-1.20355e-05
7.0456e-05
-8.54912e-06
7.09663e-05
-5.25067e-06
7.11166e-05
-2.18134e-06
7.09432e-05
6.32529e-07
7.04817e-05
3.17551e-06
6.97672e-05
5.43903e-06
6.88337e-05
7.42139e-06
6.77135e-05
9.1267e-06
6.64367e-05
1.05638e-05
6.50312e-05
1.17453e-05
6.35229e-05
1.26863e-05
6.19353e-05
1.34043e-05
6.02897e-05
1.39177e-05
5.86055e-05
1.42457e-05
5.69e-05
1.44076e-05
5.51886e-05
1.44227e-05
5.34852e-05
1.43095e-05
5.18017e-05
1.40858e-05
5.01486e-05
1.37686e-05
4.85348e-05
1.33736e-05
4.6968e-05
1.29152e-05
4.54545e-05
1.24067e-05
4.39992e-05
1.18602e-05
4.26061e-05
1.12863e-05
4.12782e-05
1.06946e-05
4.00175e-05
1.00933e-05
3.88252e-05
9.48956e-06
3.77017e-05
8.88964e-06
3.66468e-05
8.29867e-06
3.56597e-05
7.72098e-06
3.47391e-05
7.16008e-06
3.38834e-05
6.61878e-06
3.30905e-05
6.09926e-06
3.23581e-05
5.60312e-06
3.16838e-05
5.13151e-06
3.10649e-05
4.6851e-06
3.04986e-05
4.26424e-06
2.9982e-05
3.86894e-06
2.95124e-05
3.49894e-06
2.90867e-05
3.15378e-06
2.87022e-05
2.83277e-06
2.83561e-05
2.53511e-06
2.80458e-05
2.25985e-06
2.77685e-05
2.00596e-06
2.75219e-05
1.77231e-06
2.73035e-05
1.55775e-06
2.71112e-05
1.36106e-06
2.69427e-05
1.18101e-06
2.67962e-05
1.01638e-06
2.66698e-05
8.65921e-07
2.65618e-05
7.28411e-07
2.64708e-05
6.02638e-07
2.63952e-05
4.87413e-07
2.63339e-05
3.81571e-07
2.62857e-05
2.83976e-07
2.62497e-05
1.93519e-07
2.6225e-05
1.09121e-07
2.62109e-05
2.97315e-08
2.62068e-05
-4.56658e-08