/*--------------------------------*- C++ -*----------------------------------*\
  =========                 |
  \\      /  F ield         | OpenFOAM: The Open Source CFD Toolbox
   \\    /   O peration     | Website:  https://openfoam.org
    \\  /    A nd           | Version:  12
     \\/     M anipulation  |
\*---------------------------------------------------------------------------*/
FoamFile
{
    format      ascii;
    class       volVectorField;
    location    "50";
    object      U;
}
// * * * * * * * * * * * * * * * * * * * * * * * * * * * * * * * * * * * * * //

dimensions      [0 1 -1 0 0 0 0];

internalField   nonuniform List<vector> 
4480
(
(-1.07693e-05 0 8.82118e-06)
(-1.04151e-05 0 -8.51578e-06)
(2.05096e-05 0 -3.91277e-05)
(0.000103891 0 -8.22262e-05)
(0.000256558 0 -0.000137124)
(0.000494128 0 -0.000202303)
(0.000829784 0 -0.000275558)
(0.00127318 0 -0.000354025)
(0.00182949 0 -0.000434235)
(0.00249862 0 -0.00051228)
(0.00327478 0 -0.000584083)
(0.00414641 0 -0.000645729)
(0.00509666 0 -0.000693801)
(0.00610433 0 -0.000725684)
(0.00714513 0 -0.000739763)
(0.00819326 0 -0.000735519)
(0.00922292 0 -0.000713495)
(0.0102097 0 -0.000675161)
(0.011132 0 -0.000622712)
(0.0119716 0 -0.000558831)
(0.0127142 0 -0.000486454)
(0.01335 0 -0.000408559)
(0.0138731 0 -0.000327992)
(0.0142816 0 -0.00024734)
(0.0145771 0 -0.000168847)
(0.014764 0 -9.43544e-05)
(0.0148487 0 -2.51987e-05)
(0.0148399 0 3.78489e-05)
(0.0147466 0 9.44023e-05)
(0.0145777 0 0.000144242)
(0.014343 0 0.000187337)
(0.014052 0 0.000223782)
(0.013714 0 0.000253797)
(0.0133378 0 0.000277707)
(0.0129319 0 0.000295917)
(0.0125039 0 0.000308893)
(0.0120609 0 0.000317135)
(0.0116093 0 0.000321161)
(0.0111546 0 0.00032149)
(0.0107018 0 0.000318633)
(0.0102549 0 0.000313074)
(0.00981749 0 0.00030527)
(0.00939241 0 0.000295644)
(0.00898197 0 0.000284578)
(0.00858796 0 0.000272416)
(0.00821171 0 0.000259462)
(0.00785416 0 0.000245981)
(0.00751588 0 0.000232203)
(0.00719715 0 0.000218321)
(0.00689801 0 0.000204498)
(0.00661828 0 0.00019087)
(0.00635761 0 0.000177546)
(0.00611549 0 0.000164614)
(0.00589134 0 0.000152141)
(0.00568446 0 0.00014018)
(0.00549411 0 0.000128767)
(0.0053195 0 0.000117928)
(0.00515979 0 0.000107676)
(0.00501417 0 9.80179e-05)
(0.00488179 0 8.89524e-05)
(0.00476181 0 8.04723e-05)
(0.00465343 0 7.25653e-05)
(0.00455584 0 6.52154e-05)
(0.00446826 0 5.84033e-05)
(0.00438996 0 5.21072e-05)
(0.00432022 0 4.63035e-05)
(0.00425836 0 4.09667e-05)
(0.00420374 0 3.60708e-05)
(0.00415576 0 3.15887e-05)
(0.00411385 0 2.74931e-05)
(0.00407748 0 2.37566e-05)
(0.00404616 0 2.03517e-05)
(0.00401945 0 1.72515e-05)
(0.00399694 0 1.44291e-05)
(0.00397824 0 1.18584e-05)
(0.00396302 0 9.5138e-06)
(0.00395097 0 7.37045e-06)
(0.00394184 0 5.40418e-06)
(0.00393538 0 3.59161e-06)
(0.0039314 0 1.91031e-06)
(0.00392971 0 3.39307e-07)
(0.00393019 0 -1.14166e-06)
(0.00393272 0 -2.55428e-06)
(0.0039372 0 -3.92041e-06)
(0.0039436 0 -5.26093e-06)
(0.0039519 0 -6.59668e-06)
(0.00396209 0 -7.94865e-06)
(0.00397421 0 -9.33829e-06)
(0.00398834 0 -1.07878e-05)
(0.00400456 0 -1.23206e-05)
(0.00402303 0 -1.39613e-05)
(0.00404389 0 -1.57365e-05)
(0.00406738 0 -1.76751e-05)
(0.00409372 0 -1.98089e-05)
(0.00412323 0 -2.21732e-05)
(0.00415625 0 -2.48076e-05)
(0.0041932 0 -2.77571e-05)
(0.00423454 0 -3.1073e-05)
(0.00428084 0 -3.48146e-05)
(0.00433274 0 -3.90505e-05)
(0.00439098 0 -4.3861e-05)
(0.00445644 0 -4.93405e-05)
(0.00453012 0 -5.56011e-05)
(0.00461321 0 -6.27761e-05)
(0.0047071 0 -7.10257e-05)
(0.00481341 0 -8.0543e-05)
(0.00493408 0 -9.1563e-05)
(0.00507141 0 -0.000104373)
(0.00522812 0 -0.000119327)
(0.00540749 0 -0.000136862)
(0.00561351 0 -0.000157523)
(0.00585099 0 -0.000181991)
(0.00612583 0 -0.000211116)
(0.00644529 0 -0.000245953)
(0.00681836 0 -0.0002878)
(0.00725618 0 -0.000338213)
(0.00777255 0 -0.000398977)
(0.00838447 0 -0.000472015)
(0.00911348 0 -0.000559643)
(0.00998913 0 -0.000667394)
(0.0110479 0 -0.000814112)
(0.0123049 0 -0.00105154)
(0.0137855 0 -0.0015187)
(0.016305 0 -0.00287829)
(0.0239093 0 -0.00870903)
(0.0379586 0 -0.0316724)
(0.0425118 0 -0.0804647)
(0.0196462 0 -0.101289)
(-0.00949211 0 -0.103804)
(-0.0346372 0 -0.084427)
(-0.0305149 0 -0.0328969)
(-0.0156066 0 -0.00925672)
(-0.00763032 0 -0.00302029)
(-0.00513985 0 -0.00150012)
(-0.00377746 0 -0.000969742)
(-0.00265494 0 -0.000706833)
(-0.00174305 0 -0.000546144)
(-0.00102553 0 -0.000424789)
(-0.000476199 0 -0.000321878)
(-0.00021418 0 -0.000210165)
(2.94721e-06 0 9.5116e-06)
(1.96625e-05 0 -2.69258e-05)
(7.7787e-05 0 -9.06859e-05)
(0.000197517 0 -0.000180883)
(0.000399288 0 -0.000295802)
(0.000701675 0 -0.000432264)
(0.00112005 0 -0.000585685)
(0.00166547 0 -0.000750077)
(0.00234362 0 -0.000918177)
(0.00315395 0 -0.0010818)
(0.00408924 0 -0.0012324)
(0.00513556 0 -0.00136176)
(0.00627296 0 -0.00146271)
(0.00747652 0 -0.00152975)
(0.00871792 0 -0.00155947)
(0.00996721 0 -0.00155078)
(0.0111945 0 -0.00150481)
(0.0123718 0 -0.00142461)
(0.0134739 0 -0.00131479)
(0.0144797 0 -0.00118094)
(0.0153729 0 -0.0010292)
(0.0161415 0 -0.000865792)
(0.0167787 0 -0.000696649)
(0.0172817 0 -0.000527171)
(0.0176518 0 -0.000362035)
(0.0178934 0 -0.000205076)
(0.0180137 0 -5.91687e-05)
(0.0180219 0 7.39723e-05)
(0.0179284 0 0.000193549)
(0.0177435 0 0.000299097)
(0.0174786 0 0.000390497)
(0.0171447 0 0.000467931)
(0.0167527 0 0.000531848)
(0.0163131 0 0.000582916)
(0.0158358 0 0.000621975)
(0.0153301 0 0.000649989)
(0.0148045 0 0.000667999)
(0.0142666 0 0.000677085)
(0.0137232 0 0.000678336)
(0.0131804 0 0.000672814)
(0.0126432 0 0.000661541)
(0.012116 0 0.000645477)
(0.0116025 0 0.000625511)
(0.0111056 0 0.000602451)
(0.0106276 0 0.000577024)
(0.0101703 0 0.000549874)
(0.00973499 0 0.000521566)
(0.00932243 0 0.000492585)
(0.00893312 0 0.000463347)
(0.00856721 0 0.000434201)
(0.00822459 0 0.000405435)
(0.00790489 0 0.000377287)
(0.00760761 0 0.000349944)
(0.00733207 0 0.000323555)
(0.00707749 0 0.000298231)
(0.006843 0 0.000274055)
(0.00662768 0 0.00025108)
(0.00643056 0 0.00022934)
(0.00625065 0 0.000208851)
(0.00608694 0 0.00018961)
(0.00593843 0 0.000171604)
(0.00580414 0 0.000154808)
(0.00568311 0 0.00013919)
(0.00557438 0 0.000124709)
(0.00547707 0 0.00011132)
(0.0053903 0 9.89737e-05)
(0.00531324 0 8.76168e-05)
(0.00524512 0 7.7194e-05)
(0.00518519 0 6.76489e-05)
(0.00513275 0 5.89237e-05)
(0.00508718 0 5.09605e-05)
(0.00504785 0 4.37016e-05)
(0.00501423 0 3.70897e-05)
(0.00498581 0 3.10684e-05)
(0.00496212 0 2.55823e-05)
(0.00494275 0 2.05772e-05)
(0.00492732 0 1.60006e-05)
(0.00491551 0 1.18013e-05)
(0.00490702 0 7.92972e-06)
(0.0049016 0 4.33823e-06)
(0.00489905 0 9.81521e-07)
(0.00489918 0 -2.18326e-06)
(0.00490186 0 -5.201e-06)
(0.00490699 0 -8.11819e-06)
(0.00491449 0 -1.09794e-05)
(0.00492433 0 -1.38288e-05)
(0.00493653 0 -1.67109e-05)
(0.00495112 0 -1.96712e-05)
(0.00496819 0 -2.2757e-05)
(0.00498785 0 -2.60177e-05)
(0.00501027 0 -2.95057e-05)
(0.00503564 0 -3.32772e-05)
(0.00506423 0 -3.73936e-05)
(0.00509634 0 -4.1922e-05)
(0.00513232 0 -4.69371e-05)
(0.00517261 0 -5.25227e-05)
(0.0052177 0 -5.87738e-05)
(0.00526816 0 -6.57987e-05)
(0.00532468 0 -7.37225e-05)
(0.00538802 0 -8.26899e-05)
(0.00545909 0 -9.28702e-05)
(0.00553895 0 -0.000104462)
(0.00562881 0 -0.000117702)
(0.00573011 0 -0.000132871)
(0.00584451 0 -0.000150305)
(0.00597398 0 -0.000170412)
(0.00612083 0 -0.000193686)
(0.00628783 0 -0.000220733)
(0.00647825 0 -0.000252299)
(0.00669602 0 -0.000289311)
(0.00694592 0 -0.00033293)
(0.00723374 0 -0.000384619)
(0.00756661 0 -0.000446235)
(0.0079534 0 -0.000520157)
(0.00840527 0 -0.000609459)
(0.00893657 0 -0.000718164)
(0.0095662 0 -0.000851658)
(0.01032 0 -0.00101745)
(0.0112356 0 -0.00122701)
(0.012372 0 -0.00150119)
(0.0138245 0 -0.00188498)
(0.0157435 0 -0.00247813)
(0.0184118 0 -0.0034968)
(0.0225714 0 -0.00553386)
(0.0296012 0 -0.0107661)
(0.0372133 0 -0.0258763)
(0.0340929 0 -0.0580202)
(0.016696 0 -0.0757963)
(-0.0061535 0 -0.0775069)
(-0.0249072 0 -0.0609227)
(-0.0282329 0 -0.0272448)
(-0.0201258 0 -0.0113041)
(-0.0127648 0 -0.00568186)
(-0.00848114 0 -0.00345745)
(-0.00579092 0 -0.00234611)
(-0.00390979 0 -0.00170435)
(-0.00254052 0 -0.00128665)
(-0.00151845 0 -0.000977525)
(-0.000742924 0 -0.000722713)
(-0.000342896 0 -0.000489957)
(1.67544e-05 0 -1.06474e-05)
(4.91643e-05 0 -7.81659e-05)
(0.000133968 0 -0.000197805)
(0.000287397 0 -0.000367473)
(0.000533011 0 -0.000583564)
(0.000892119 0 -0.000839941)
(0.00138208 0 -0.00112785)
(0.00201523 0 -0.00143591)
(0.00279769 0 -0.00175043)
(0.00372849 0 -0.00205606)
(0.00479901 0 -0.00233688)
(0.00599312 0 -0.00257767)
(0.00728792 0 -0.00276522)
(0.00865515 0 -0.00288948)
(0.0100629 0 -0.00294433)
(0.0114778 0 -0.00292786)
(0.0128666 0 -0.00284226)
(0.0141985 0 -0.00269323)
(0.015446 0 -0.00248921)
(0.0165862 0 -0.0022405)
(0.0176011 0 -0.00195829)
(0.0184781 0 -0.00165396)
(0.0192095 0 -0.00133837)
(0.0197921 0 -0.00102141)
(0.0202271 0 -0.000711664)
(0.020519 0 -0.000416216)
(0.0206752 0 -0.000140477)
(0.0207051 0 0.000112031)
(0.0206201 0 0.00033947)
(0.0204314 0 0.000540894)
(0.0201513 0 0.000715973)
(0.0197919 0 0.000864956)
(0.0193653 0 0.000988598)
(0.0188829 0 0.00108807)
(0.0183558 0 0.00116488)
(0.0177945 0 0.00122078)
(0.0172084 0 0.00125765)
(0.0166062 0 0.0012775)
(0.0159958 0 0.00128233)
(0.0153839 0 0.00127412)
(0.0147765 0 0.00125479)
(0.0141788 0 0.00122614)
(0.013595 0 0.00118984)
(0.0130287 0 0.00114744)
(0.0124827 0 0.00110031)
(0.0119591 0 0.0010497)
(0.0114597 0 0.000996689)
(0.0109854 0 0.000942216)
(0.0105371 0 0.000887089)
(0.010115 0 0.00083199)
(0.00971911 0 0.00077749)
(0.00934913 0 0.000724053)
(0.00900458 0 0.000672057)
(0.00868479 0 0.000621797)
(0.00838893 0 0.000573502)
(0.00811607 0 0.000527339)
(0.0078652 0 0.000483423)
(0.00763526 0 0.000441829)
(0.00742514 0 0.000402591)
(0.00723372 0 0.000365715)
(0.00705988 0 0.00033118)
(0.00690249 0 0.000298946)
(0.00676047 0 0.000268952)
(0.00663273 0 0.000241126)
(0.00651826 0 0.000215385)
(0.00641605 0 0.000191634)
(0.00632515 0 0.000169776)
(0.00624466 0 0.000149707)
(0.00617373 0 0.000131318)
(0.00611156 0 0.0001145)
(0.00605741 0 9.9145e-05)
(0.00601057 0 8.51412e-05)
(0.00597041 0 7.23801e-05)
(0.00593634 0 6.0754e-05)
(0.00590782 0 5.01572e-05)
(0.00588437 0 4.04862e-05)
(0.00586555 0 3.16405e-05)
(0.00585098 0 2.35221e-05)
(0.00584031 0 1.60362e-05)
(0.00583325 0 9.09131e-06)
(0.00582955 0 2.59974e-06)
(0.00582901 0 -3.52155e-06)
(0.00583147 0 -9.35756e-06)
(0.00583678 0 -1.49961e-05)
(0.00584489 0 -2.05225e-05)
(0.00585573 0 -2.60215e-05)
(0.00586933 0 -3.15786e-05)
(0.00588571 0 -3.72812e-05)
(0.00590497 0 -4.32194e-05)
(0.00592723 0 -4.94879e-05)
(0.00595269 0 -5.61868e-05)
(0.00598156 0 -6.34235e-05)
(0.00601413 0 -7.13146e-05)
(0.00605075 0 -7.99882e-05)
(0.00609181 0 -8.95862e-05)
(0.0061378 0 -0.000100268)
(0.00618927 0 -0.000112213)
(0.00624687 0 -0.000125628)
(0.00631137 0 -0.000140748)
(0.00638362 0 -0.000157847)
(0.00646463 0 -0.000177245)
(0.00655559 0 -0.000199316)
(0.00665784 0 -0.000224505)
(0.00677297 0 -0.000253339)
(0.00690283 0 -0.000286452)
(0.00704957 0 -0.000324605)
(0.00721573 0 -0.000368727)
(0.00740433 0 -0.000419952)
(0.00761893 0 -0.000479678)
(0.0078638 0 -0.000549647)
(0.00814409 0 -0.000632045)
(0.00846606 0 -0.000729647)
(0.0088374 0 -0.000846023)
(0.00926769 0 -0.000985834)
(0.00976906 0 -0.0011553)
(0.0103572 0 -0.00136297)
(0.0110532 0 -0.00162104)
(0.0118856 0 -0.00194791)
(0.0128956 0 -0.00237323)
(0.0141438 0 -0.0029488)
(0.0157194 0 -0.00377151)
(0.0177492 0 -0.0050274)
(0.0204081 0 -0.00707094)
(0.0239121 0 -0.0106058)
(0.0281504 0 -0.0171326)
(0.0308592 0 -0.0292765)
(0.0265121 0 -0.0468615)
(0.013938 0 -0.0580123)
(-0.00253039 0 -0.0591091)
(-0.0160504 0 -0.0487619)
(-0.0206411 0 -0.0306058)
(-0.0177542 0 -0.0178972)
(-0.0132689 0 -0.0109682)
(-0.00957209 0 -0.00716265)
(-0.00678846 0 -0.00494328)
(-0.00469821 0 -0.00357133)
(-0.00311839 0 -0.00266129)
(-0.00190523 0 -0.00200591)
(-0.000955833 0 -0.00149553)
(-0.000439083 0 -0.00107417)
(2.76109e-05 0 -5.03449e-05)
(7.22248e-05 0 -0.000151177)
(0.000178058 0 -0.00033089)
(0.000358362 0 -0.000586409)
(0.000639494 0 -0.000912044)
(0.00104538 0 -0.00129841)
(0.00159539 0 -0.00173211)
(0.00230323 0 -0.00219576)
(0.0031756 0 -0.0026685)
(0.00421111 0 -0.00312704)
(0.00539975 0 -0.00354734)
(0.00672304 0 -0.00390656)
(0.00815502 0 -0.00418509)
(0.00966388 0 -0.00436816)
(0.0112141 0 -0.00444702)
(0.0127689 0 -0.00441931)
(0.014292 0 -0.00428871)
(0.0157504 0 -0.00406406)
(0.0171149 0 -0.00375814)
(0.0183614 0 -0.00338629)
(0.0194715 0 -0.0029651)
(0.0204322 0 -0.00251126)
(0.021236 0 -0.00204064)
(0.0218799 0 -0.00156767)
(0.0223655 0 -0.00110481)
(0.0226974 0 -0.000662382)
(0.0228834 0 -0.000248337)
(0.0229333 0 0.000131877)
(0.0228588 0 0.000475234)
(0.0226718 0 0.000780226)
(0.0223852 0 0.00104626)
(0.0220116 0 0.00127358)
(0.0215639 0 0.0014632)
(0.0210543 0 0.00161677)
(0.0204945 0 0.00173642)
(0.0198956 0 0.00182466)
(0.0192679 0 0.00188424)
(0.0186207 0 0.00191806)
(0.0179624 0 0.00192906)
(0.0173007 0 0.00192017)
(0.0166419 0 0.00189421)
(0.0159919 0 0.00185386)
(0.0153554 0 0.00180164)
(0.0147365 0 0.00173984)
(0.0141383 0 0.00167056)
(0.0135634 0 0.00159569)
(0.0130139 0 0.00151686)
(0.012491 0 0.00143553)
(0.0119957 0 0.00135294)
(0.0115286 0 0.00127014)
(0.0110897 0 0.00118804)
(0.0106788 0 0.00110736)
(0.0102955 0 0.00102869)
(0.00993927 0 0.00095252)
(0.00960918 0 0.000879208)
(0.00930431 0 0.000809033)
(0.00902363 0 0.000742188)
(0.00876602 0 0.000678802)
(0.0085303 0 0.000618944)
(0.00831527 0 0.000562634)
(0.00811973 0 0.000509853)
(0.00794247 0 0.000460546)
(0.0077823 0 0.000414632)
(0.00763805 0 0.000372007)
(0.0075086 0 0.000332548)
(0.00739283 0 0.000296118)
(0.00728972 0 0.00026257)
(0.00719827 0 0.000231749)
(0.00711754 0 0.000203493)
(0.00704663 0 0.000177638)
(0.00698472 0 0.000154019)
(0.00693104 0 0.000132468)
(0.00688488 0 0.00011282)
(0.00684557 0 9.49119e-05)
(0.00681252 0 7.85826e-05)
(0.00678518 0 6.3675e-05)
(0.00676307 0 5.00357e-05)
(0.00674575 0 3.75155e-05)
(0.00673284 0 2.59696e-05)
(0.00672401 0 1.5258e-05)
(0.00671897 0 5.24601e-06)
(0.00671748 0 -4.19444e-06)
(0.00671938 0 -1.31922e-05)
(0.0067245 0 -2.18795e-05)
(0.00673274 0 -3.03861e-05)
(0.00674407 0 -3.88415e-05)
(0.00675847 0 -4.73761e-05)
(0.00677598 0 -5.61229e-05)
(0.00679669 0 -6.52194e-05)
(0.00682074 0 -7.48092e-05)
(0.00684831 0 -8.50441e-05)
(0.00687965 0 -9.60868e-05)
(0.00691507 0 -0.000108114)
(0.00695491 0 -0.000121317)
(0.00699963 0 -0.000135912)
(0.00704971 0 -0.000152137)
(0.00710577 0 -0.000170262)
(0.00716849 0 -0.000190595)
(0.00723866 0 -0.000213488)
(0.00731721 0 -0.000239349)
(0.00740521 0 -0.000268653)
(0.00750387 0 -0.000301955)
(0.00761462 0 -0.000339913)
(0.00773911 0 -0.000383306)
(0.00787924 0 -0.000433064)
(0.00803724 0 -0.000490308)
(0.0082157 0 -0.000556396)
(0.00841769 0 -0.000632987)
(0.0086468 0 -0.000722124)
(0.00890729 0 -0.000826346)
(0.00920428 0 -0.000948845)
(0.00954392 0 -0.00109368)
(0.00993368 0 -0.00126609)
(0.0103828 0 -0.00147298)
(0.0109027 0 -0.00172361)
(0.011508 0 -0.00203081)
(0.0122175 0 -0.00241297)
(0.0130557 0 -0.00289747)
(0.0140548 0 -0.00352689)
(0.0152562 0 -0.00437011)
(0.0167097 0 -0.00554195)
(0.0184631 0 -0.00723507)
(0.0205333 0 -0.0097667)
(0.0228237 0 -0.0136445)
(0.0248523 0 -0.0196223)
(0.0250831 0 -0.0284107)
(0.0208781 0 -0.0388685)
(0.0118092 0 -0.0458274)
(0.00034004 0 -0.0465885)
(-0.00940728 0 -0.0402928)
(-0.0138486 0 -0.0296896)
(-0.0135988 0 -0.0205395)
(-0.0114212 0 -0.0142051)
(-0.0089528 0 -0.0100341)
(-0.00672354 0 -0.00727839)
(-0.00485091 0 -0.00541422)
(-0.00332345 0 -0.00410237)
(-0.00208241 0 -0.00313207)
(-0.00106633 0 -0.00237788)
(-0.000495211 0 -0.00177102)
(3.35182e-05 0 -0.000102673)
(8.49292e-05 0 -0.000238946)
(0.00020306 0 -0.000482576)
(0.000400772 0 -0.000829963)
(0.000707198 0 -0.00127337)
(0.00114894 0 -0.00179997)
(0.00174764 0 -0.00239133)
(0.00251859 0 -0.0030234)
(0.00346926 0 -0.0036673)
(0.00459792 0 -0.00429087)
(0.00589303 0 -0.00486099)
(0.00733345 0 -0.00534641)
(0.00888968 0 -0.00572048)
(0.0105259 0 -0.00596355)
(0.0122024 0 -0.00606438)
(0.0138787 0 -0.00602058)
(0.0155157 0 -0.00583795)
(0.017078 0 -0.00552919)
(0.0185354 0 -0.0051121)
(0.0198633 0 -0.00460763)
(0.0210435 0 -0.00403817)
(0.0220638 0 -0.00342597)
(0.0229173 0 -0.00279206)
(0.0236021 0 -0.00215536)
(0.0241205 0 -0.00153216)
(0.0244781 0 -0.000935911)
(0.0246833 0 -0.000377001)
(0.0247462 0 0.000137252)
(0.0246789 0 0.000602614)
(0.0244937 0 0.00101695)
(0.0242038 0 0.00137937)
(0.0238224 0 0.00169012)
(0.0233624 0 0.00195044)
(0.0228366 0 0.00216244)
(0.022257 0 0.00232887)
(0.0216351 0 0.00245299)
(0.0209814 0 0.00253839)
(0.0203057 0 0.00258889)
(0.0196168 0 0.00260835)
(0.0189225 0 0.00260063)
(0.0182297 0 0.00256948)
(0.0175446 0 0.00251849)
(0.0168721 0 0.002451)
(0.0162168 0 0.00237012)
(0.015582 0 0.00227867)
(0.0149708 0 0.0021792)
(0.0143852 0 0.00207397)
(0.013827 0 0.00196495)
(0.0132972 0 0.00185387)
(0.0127966 0 0.00174218)
(0.0123254 0 0.00163114)
(0.0118835 0 0.00152176)
(0.0114706 0 0.00141491)
(0.0110862 0 0.00131125)
(0.0107294 0 0.00121132)
(0.0103995 0 0.00111551)
(0.0100952 0 0.00102414)
(0.00981556 0 0.000937376)
(0.00955931 0 0.000855351)
(0.00932522 0 0.000778108)
(0.00911205 0 0.000705635)
(0.00891854 0 0.000637872)
(0.00874343 0 0.000574718)
(0.0085855 0 0.000516041)
(0.00844354 0 0.000461683)
(0.00831641 0 0.000411463)
(0.00820299 0 0.000365185)
(0.00810222 0 0.000322641)
(0.00801309 0 0.000283615)
(0.00793465 0 0.000247884)
(0.007866 0 0.000215224)
(0.00780633 0 0.000185408)
(0.00775485 0 0.000158212)
(0.00771085 0 0.000133412)
(0.0076737 0 0.00011079)
(0.00764279 0 9.01305e-05)
(0.0076176 0 7.12236e-05)
(0.00759766 0 5.38653e-05)
(0.00758253 0 3.78571e-05)
(0.00757187 0 2.30067e-05)
(0.00756536 0 9.1284e-06)
(0.00756273 0 -3.95539e-06)
(0.0075638 0 -1.64203e-05)
(0.00756838 0 -2.84446e-05)
(0.00757636 0 -4.02063e-05)
(0.00758769 0 -5.18825e-05)
(0.00760234 0 -6.36516e-05)
(0.00762035 0 -7.56953e-05)
(0.0076418 0 -8.82011e-05)
(0.00766683 0 -0.000101364)
(0.00769563 0 -0.000115392)
(0.00772844 0 -0.000130503)
(0.00776557 0 -0.000146938)
(0.00780739 0 -0.000164955)
(0.00785434 0 -0.000184844)
(0.00790694 0 -0.000206924)
(0.0079658 0 -0.000231558)
(0.00803161 0 -0.000259155)
(0.00810518 0 -0.000290186)
(0.00818745 0 -0.00032519)
(0.00827948 0 -0.000364796)
(0.0083825 0 -0.000409737)
(0.00849792 0 -0.000460876)
(0.00862737 0 -0.000519232)
(0.00877271 0 -0.00058602)
(0.00893612 0 -0.000662697)
(0.00912008 0 -0.000751021)
(0.00932752 0 -0.000853131)
(0.00956183 0 -0.000971652)
(0.00982697 0 -0.00110984)
(0.0101276 0 -0.00127175)
(0.0104693 0 -0.00146256)
(0.0108586 0 -0.00168889)
(0.0113033 0 -0.00195941)
(0.011813 0 -0.00228571)
(0.0123991 0 -0.00268357)
(0.0130751 0 -0.0031751)
(0.0138572 0 -0.00379204)
(0.0147633 0 -0.00458106)
(0.0158105 0 -0.00561194)
(0.0170078 0 -0.00698954)
(0.018339 0 -0.00886896)
(0.019728 0 -0.0114696)
(0.020971 0 -0.0150754)
(0.0216005 0 -0.0199803)
(0.0206762 0 -0.0262246)
(0.0169573 0 -0.0328288)
(0.0103573 0 -0.0372291)
(0.00236688 0 -0.0377644)
(-0.00470388 0 -0.0339261)
(-0.00862243 0 -0.0273768)
(-0.00959495 0 -0.0209368)
(-0.008892 0 -0.0157635)
(-0.00751276 0 -0.0118941)
(-0.00597029 0 -0.00906123)
(-0.00449738 0 -0.00698167)
(-0.00318496 0 -0.00542582)
(-0.00204622 0 -0.00422713)
(-0.00106635 0 -0.0032744)
(-0.000501109 0 -0.00249984)
(3.29193e-05 0 -0.000159476)
(8.42456e-05 0 -0.000332539)
(0.000203553 0 -0.000643736)
(0.000407167 0 -0.00108931)
(0.000727225 0 -0.00165954)
(0.00119326 0 -0.00233798)
(0.00182954 0 -0.00310069)
(0.0026534 0 -0.00391622)
(0.00367329 0 -0.0047466)
(0.0048872 0 -0.00554957)
(0.00628181 0 -0.00628166)
(0.00783279 0 -0.00690205)
(0.00950633 0 -0.00737634)
(0.0112617 0 -0.00767969)
(0.0130543 0 -0.0077986)
(0.0148395 0 -0.00773129)
(0.0165748 0 -0.00748666)
(0.0182228 0 -0.00708228)
(0.0197523 0 -0.00654191)
(0.0211392 0 -0.00589295)
(0.022366 0 -0.00516413)
(0.023422 0 -0.00438366)
(0.0243021 0 -0.00357781)
(0.025006 0 -0.00276998)
(0.0255376 0 -0.00198019)
(0.0259039 0 -0.00122476)
(0.0261143 0 -0.000516311)
(0.0261795 0 0.000136205)
(0.026112 0 0.000727483)
(0.0259246 0 0.00125477)
(0.0256305 0 0.00171691)
(0.0252433 0 0.00211416)
(0.0247759 0 0.00244804)
(0.0242412 0 0.00272113)
(0.0236514 0 0.00293681)
(0.0230177 0 0.00309911)
(0.0223509 0 0.00321246)
(0.0216607 0 0.00328154)
(0.020956 0 0.00331117)
(0.0202446 0 0.00330611)
(0.0195336 0 0.00327104)
(0.0188292 0 0.00321041)
(0.0181367 0 0.00312843)
(0.0174604 0 0.00302899)
(0.0168043 0 0.00291566)
(0.0161712 0 0.00279166)
(0.0155636 0 0.00265986)
(0.0149833 0 0.00252279)
(0.0144315 0 0.00238268)
(0.0139092 0 0.0022414)
(0.0134166 0 0.00210058)
(0.012954 0 0.00196157)
(0.0125209 0 0.00182549)
(0.0121171 0 0.00169323)
(0.0117417 0 0.00156551)
(0.0113939 0 0.00144289)
(0.0110728 0 0.00132576)
(0.0107771 0 0.0012144)
(0.0105058 0 0.001109)
(0.0102576 0 0.00100964)
(0.0100313 0 0.000916311)
(0.00982547 0 0.000828966)
(0.00963896 0 0.00074749)
(0.0094705 0 0.000671726)
(0.00931885 0 0.000601482)
(0.00918281 0 0.000536537)
(0.00906124 0 0.000476647)
(0.00895303 0 0.000421552)
(0.00885713 0 0.000370979)
(0.00877257 0 0.000324648)
(0.00869839 0 0.000282273)
(0.00863374 0 0.000243568)
(0.0085778 0 0.000208244)
(0.00852982 0 0.000176019)
(0.00848913 0 0.00014661)
(0.00845509 0 0.000119744)
(0.00842715 0 9.51516e-05)
(0.0084048 0 7.25701e-05)
(0.00838759 0 5.17448e-05)
(0.00837514 0 3.24284e-05)
(0.00836711 0 1.43811e-05)
(0.00836321 0 -2.62856e-06)
(0.00836324 0 -1.88248e-05)
(0.00836701 0 -3.44333e-05)
(0.00837438 0 -4.96828e-05)
(0.00838528 0 -6.48004e-05)
(0.00839968 0 -8.00148e-05)
(0.00841761 0 -9.55583e-05)
(0.00843913 0 -0.00011167)
(0.00846439 0 -0.0001286)
(0.00849355 0 -0.000146609)
(0.00852686 0 -0.000165978)
(0.00856462 0 -0.000187008)
(0.00860719 0 -0.000210026)
(0.00865501 0 -0.000235395)
(0.00870858 0 -0.000263517)
(0.0087685 0 -0.000294843)
(0.00883545 0 -0.000329884)
(0.00891022 0 -0.000369221)
(0.00899371 0 -0.000413522)
(0.00908694 0 -0.000463561)
(0.0091911 0 -0.000520236)
(0.00930752 0 -0.000584599)
(0.00943774 0 -0.00065789)
(0.0095835 0 -0.000741575)
(0.00974679 0 -0.000837408)
(0.00992989 0 -0.000947491)
(0.0101354 0 -0.00107437)
(0.0103664 0 -0.00122114)
(0.0106261 0 -0.00139163)
(0.0109187 0 -0.00159058)
(0.0112485 0 -0.00182393)
(0.0116208 0 -0.00209926)
(0.0120415 0 -0.00242634)
(0.012517 0 -0.00281796)
(0.0130547 0 -0.00329114)
(0.0136621 0 -0.00386891)
(0.0143459 0 -0.00458284)
(0.01511 0 -0.0054766)
(0.0159511 0 -0.00661058)
(0.0168499 0 -0.00806707)
(0.0177551 0 -0.00995361)
(0.0185578 0 -0.0123991)
(0.0190515 0 -0.0155316)
(0.0188778 0 -0.019413)
(0.0174882 0 -0.0238763)
(0.0143173 0 -0.02821)
(0.00942671 0 -0.03105)
(0.00372883 0 -0.0314257)
(-0.00144922 0 -0.0290755)
(-0.00479602 0 -0.0248888)
(-0.00625395 0 -0.0203537)
(-0.00640105 0 -0.0162953)
(-0.00581167 0 -0.0129503)
(-0.00487712 0 -0.0102894)
(-0.00383156 0 -0.00819557)
(-0.00280228 0 -0.00653834)
(-0.00184344 0 -0.00520475)
(-0.000975119 0 -0.00410974)
(-0.000462726 0 -0.00319466)
(2.48301e-05 0 -0.000210936)
(6.81827e-05 0 -0.000420852)
(0.000175932 0 -0.000802574)
(0.000372592 0 -0.00135245)
(0.000693705 0 -0.00205884)
(0.00117212 0 -0.00290154)
(0.00183528 0 -0.00385059)
(0.00270302 0 -0.00486625)
(0.00378515 0 -0.00590026)
(0.00507937 0 -0.00689866)
(0.00657024 0 -0.00780601)
(0.00822949 0 -0.0085705)
(0.010018 0 -0.00914904)
(0.0118888 0 -0.00951128)
(0.0137917 0 -0.00964189)
(0.0156768 0 -0.00954065)
(0.017498 0 -0.00922082)
(0.0192159 0 -0.00870624)
(0.020799 0 -0.0080279)
(0.0222236 0 -0.00722065)
(0.0234744 0 -0.0063203)
(0.0245427 0 -0.00536136)
(0.025426 0 -0.00437549)
(0.0261267 0 -0.00339048)
(0.0266508 0 -0.00242978)
(0.0270072 0 -0.00151231)
(0.0272067 0 -0.000652531)
(0.0272614 0 0.000139383)
(0.0271838 0 0.00085734)
(0.0269874 0 0.00149807)
(0.0266855 0 0.00206023)
(0.0262918 0 0.00254422)
(0.0258191 0 0.0029519)
(0.0252801 0 0.0032864)
(0.0246868 0 0.00355176)
(0.0240503 0 0.00375278)
(0.0233809 0 0.00389473)
(0.0226881 0 0.00398317)
(0.0219805 0 0.00402381)
(0.0212659 0 0.00402231)
(0.0205511 0 0.00398422)
(0.0198421 0 0.00391485)
(0.0191442 0 0.00381921)
(0.0184618 0 0.00370197)
(0.0177986 0 0.00356741)
(0.0171578 0 0.0034194)
(0.0165418 0 0.00326144)
(0.0159524 0 0.0030966)
(0.0153911 0 0.00292759)
(0.0148588 0 0.00275673)
(0.014356 0 0.00258602)
(0.0138829 0 0.00241714)
(0.0134394 0 0.00225149)
(0.0130251 0 0.00209022)
(0.0126394 0 0.00193422)
(0.0122814 0 0.00178422)
(0.0119503 0 0.00164073)
(0.0116451 0 0.00150415)
(0.0113645 0 0.0013747)
(0.0111074 0 0.00125253)
(0.0108726 0 0.00113767)
(0.0106588 0 0.00103005)
(0.0104647 0 0.000929577)
(0.0102891 0 0.000836063)
(0.0101308 0 0.000749289)
(0.00998858 0 0.000668997)
(0.00986125 0 0.000594898)
(0.0097477 0 0.000526683)
(0.00964688 0 0.000464024)
(0.00955779 0 0.000406582)
(0.00947946 0 0.000354014)
(0.00941101 0 0.000305969)
(0.00935161 0 0.000262099)
(0.00930049 0 0.000222057)
(0.00925695 0 0.000185501)
(0.00922035 0 0.000152093)
(0.00919009 0 0.000121505)
(0.00916566 0 9.34156e-05)
(0.00914659 0 6.75112e-05)
(0.00913247 0 4.34881e-05)
(0.00912296 0 2.10506e-05)
(0.00911775 0 -8.84637e-08)
(0.00911661 0 -2.02038e-05)
(0.00911934 0 -3.95693e-05)
(0.00912581 0 -5.84656e-05)
(0.00913591 0 -7.71708e-05)
(0.00914962 0 -9.59644e-05)
(0.00916693 0 -0.00011513)
(0.00918792 0 -0.00013496)
(0.00921269 0 -0.000155756)
(0.00924142 0 -0.000177838)
(0.00927433 0 -0.000201542)
(0.00931169 0 -0.000227232)
(0.00935386 0 -0.000255303)
(0.00940124 0 -0.000286187)
(0.00945433 0 -0.000320364)
(0.00951367 0 -0.00035837)
(0.00957991 0 -0.00040081)
(0.00965379 0 -0.000448368)
(0.00973616 0 -0.000501829)
(0.00982795 0 -0.000562096)
(0.00993025 0 -0.000630213)
(0.0100443 0 -0.000707395)
(0.0101714 0 -0.000795069)
(0.0103132 0 -0.000894911)
(0.0104714 0 -0.00100891)
(0.0106479 0 -0.00113944)
(0.010845 0 -0.00128936)
(0.0110651 0 -0.00146209)
(0.0113109 0 -0.00166184)
(0.0115854 0 -0.00189375)
(0.0118919 0 -0.00216422)
(0.0122339 0 -0.00248123)
(0.0126151 0 -0.00285491)
(0.0130389 0 -0.00329815)
(0.0135085 0 -0.00382762)
(0.0140253 0 -0.00446499)
(0.0145882 0 -0.00523846)
(0.0151903 0 -0.00618468)
(0.015815 0 -0.00735045)
(0.0164279 0 -0.00879336)
(0.0169657 0 -0.0105791)
(0.0173204 0 -0.0127712)
(0.0173216 0 -0.0154063)
(0.0167217 0 -0.0184448)
(0.0152124 0 -0.0216809)
(0.0125489 0 -0.0246225)
(0.00883934 0 -0.0265122)
(0.004648 0 -0.0267887)
(0.000779293 0 -0.0253267)
(-0.00203947 0 -0.0225718)
(-0.00361559 0 -0.0193499)
(-0.00421314 0 -0.0162129)
(-0.00414791 0 -0.0134196)
(-0.00368726 0 -0.0110412)
(-0.00302405 0 -0.00905522)
(-0.00228403 0 -0.00740151)
(-0.00153721 0 -0.00601241)
(-0.00082401 0 -0.00482918)
(-0.000394268 0 -0.0038045)
(8.67279e-06 0 -0.000246178)
(3.5546e-05 0 -0.000491511)
(0.000118019 0 -0.000946006)
(0.000294083 0 -0.00160621)
(0.000603172 0 -0.00245862)
(0.00108192 0 -0.00347909)
(0.0017616 0 -0.00463115)
(0.00266517 0 -0.00586576)
(0.00380413 0 -0.00712282)
(0.00517597 0 -0.0083348)
(0.00676264 0 -0.0094322)
(0.00853099 0 -0.0103504)
(0.0104352 0 -0.0110365)
(0.012421 0 -0.0114544)
(0.0144308 0 -0.0115874)
(0.0164089 0 -0.0114383)
(0.0183053 0 -0.0110264)
(0.0200785 0 -0.0103837)
(0.0216969 0 -0.00954984)
(0.0231387 0 -0.00856844)
(0.0243909 0 -0.00748314)
(0.0254482 0 -0.0063352)
(0.0263115 0 -0.00516171)
(0.0269864 0 -0.00399468)
(0.0274819 0 -0.00286065)
(0.0278094 0 -0.00178065)
(0.0279816 0 -0.000770474)
(0.0280119 0 0.000159015)
(0.0279132 0 0.00100133)
(0.0276996 0 0.00175288)
(0.0273849 0 0.00241235)
(0.0269824 0 0.00298042)
(0.0265049 0 0.00345945)
(0.0259647 0 0.00385321)
(0.0253731 0 0.00416648)
(0.0247409 0 0.00440487)
(0.0240778 0 0.00457448)
(0.0233928 0 0.00468175)
(0.022694 0 0.00473322)
(0.0219885 0 0.00473543)
(0.021283 0 0.00469472)
(0.0205829 0 0.00461722)
(0.0198934 0 0.00450868)
(0.0192186 0 0.00437448)
(0.0185622 0 0.00421957)
(0.0179271 0 0.00404847)
(0.0173157 0 0.00386522)
(0.01673 0 0.00367343)
(0.0161713 0 0.00347626)
(0.0156406 0 0.00327648)
(0.0151385 0 0.00307644)
(0.0146653 0 0.00287816)
(0.014221 0 0.00268332)
(0.0138052 0 0.0024933)
(0.0134175 0 0.00230921)
(0.0130571 0 0.00213192)
(0.0127233 0 0.00196211)
(0.0124149 0 0.00180025)
(0.0121311 0 0.00164666)
(0.0118706 0 0.00150154)
(0.0116323 0 0.00136495)
(0.0114149 0 0.00123686)
(0.0112173 0 0.00111714)
(0.0110383 0 0.00100562)
(0.0108765 0 0.000902041)
(0.010731 0 0.000806123)
(0.0106004 0 0.000717535)
(0.0104838 0 0.000635919)
(0.0103801 0 0.000560897)
(0.0102882 0 0.000492076)
(0.0102073 0 0.000429052)
(0.0101364 0 0.000371417)
(0.0100746 0 0.000318762)
(0.0100213 0 0.000270677)
(0.00997576 0 0.000226759)
(0.00993725 0 0.000186611)
(0.00990521 0 0.000149843)
(0.00987912 0 0.000116074)
(0.00985849 0 8.49333e-05)
(0.00984292 0 5.60604e-05)
(0.00983204 0 2.91035e-05)
(0.00982554 0 3.72062e-06)
(0.00982317 0 -2.04154e-05)
(0.00982473 0 -4.3629e-05)
(0.00983007 0 -6.62504e-05)
(0.00983907 0 -8.86082e-05)
(0.0098517 0 -0.000111032)
(0.00986794 0 -0.000133857)
(0.00988784 0 -0.000157427)
(0.00991149 0 -0.000182095)
(0.00993905 0 -0.000208236)
(0.00997072 0 -0.000236242)
(0.0100067 0 -0.000266536)
(0.0100474 0 -0.000299574)
(0.0100932 0 -0.000335857)
(0.0101445 0 -0.000375934)
(0.0102017 0 -0.000420418)
(0.0102655 0 -0.000469998)
(0.0103366 0 -0.000525451)
(0.0104157 0 -0.00058766)
(0.0105037 0 -0.000657638)
(0.0106014 0 -0.000736549)
(0.01071 0 -0.000825741)
(0.0108307 0 -0.000926783)
(0.0109646 0 -0.00104151)
(0.0111134 0 -0.00117209)
(0.0112784 0 -0.00132106)
(0.0114616 0 -0.00149147)
(0.0116645 0 -0.00168694)
(0.0118894 0 -0.00191186)
(0.012138 0 -0.00217151)
(0.0124124 0 -0.00247235)
(0.0127145 0 -0.00282231)
(0.0130456 0 -0.00323118)
(0.0134066 0 -0.00371111)
(0.0137967 0 -0.00427723)
(0.0142129 0 -0.00494837)
(0.0146481 0 -0.00574775)
(0.015089 0 -0.00670358)
(0.0155117 0 -0.00784887)
(0.015877 0 -0.00921973)
(0.0161232 0 -0.0108504)
(0.0161582 0 -0.0127624)
(0.0158541 0 -0.0149451)
(0.0150501 0 -0.0173229)