/*--------------------------------*- C++ -*----------------------------------*\
  =========                 |
  \\      /  F ield         | OpenFOAM: The Open Source CFD Toolbox
   \\    /   O peration     | Website:  https://openfoam.org
    \\  /    A nd           | Version:  12
     \\/     M anipulation  |
\*---------------------------------------------------------------------------*/
FoamFile
{
    format      ascii;
    class       volVectorField;
    location    "50";
    object      UMean;
}
// * * * * * * * * * * * * * * * * * * * * * * * * * * * * * * * * * * * * * //

dimensions      [0 1 -1 0 0 0 0];

internalField   nonuniform List<vector> 
4480
(
(-9.2071e-06 0 7.37313e-06)
(-7.90085e-06 0 -9.23251e-06)
(2.3019e-05 0 -3.83392e-05)
(0.00010377 0 -7.92968e-05)
(0.00025036 0 -0.000131459)
(0.000477652 0 -0.000193385)
(0.000798179 0 -0.000262974)
(0.0012211 0 -0.00033749)
(0.00175128 0 -0.000413614)
(0.00238857 0 -0.000487606)
(0.0031273 0 -0.000555558)
(0.00395633 0 -0.000613716)
(0.00485939 0 -0.000658801)
(0.00581607 0 -0.000688302)
(0.00680297 0 -0.000700672)
(0.00779525 0 -0.000695419)
(0.00876808 0 -0.000673082)
(0.00969807 0 -0.000635095)
(0.0105644 0 -0.000583603)
(0.0113497 0 -0.000521224)
(0.0120404 0 -0.000450825)
(0.0126274 0 -0.000375313)
(0.0131052 0 -0.000297465)
(0.0134725 0 -0.000219797)
(0.0137311 0 -0.000144485)
(0.0138855 0 -7.32915e-05)
(0.0139425 0 -7.46014e-06)
(0.0139109 0 5.22755e-05)
(0.0137992 0 0.000105528)
(0.0136166 0 0.000152086)
(0.0133728 0 0.000191908)
(0.0130774 0 0.000225099)
(0.0127395 0 0.000251899)
(0.012368 0 0.000272661)
(0.0119711 0 0.000287817)
(0.0115564 0 0.000297859)
(0.0111309 0 0.000303316)
(0.0107005 0 0.000304728)
(0.0102706 0 0.000302638)
(0.0098458 0 0.000297572)
(0.00942997 0 0.000290029)
(0.00902627 0 0.000280477)
(0.00863722 0 0.000269345)
(0.00826478 0 0.000257018)
(0.0079104 0 0.00024384)
(0.00757506 0 0.000230112)
(0.00725935 0 0.000216093)
(0.00696352 0 0.000202004)
(0.00668755 0 0.000188028)
(0.00643117 0 0.000174318)
(0.0061939 0 0.000160993)
(0.00597515 0 0.00014815)
(0.00577417 0 0.000135859)
(0.00559015 0 0.000124172)
(0.0054222 0 0.000113123)
(0.00526943 0 0.000102732)
(0.00513088 0 9.30067e-05)
(0.00500562 0 8.39431e-05)
(0.00489272 0 7.55308e-05)
(0.00479127 0 6.77521e-05)
(0.0047004 0 6.05842e-05)
(0.00461926 0 5.40004e-05)
(0.00454703 0 4.79712e-05)
(0.00448297 0 4.24651e-05)
(0.00442636 0 3.74494e-05)
(0.00437651 0 3.2891e-05)
(0.00433282 0 2.87563e-05)
(0.00429471 0 2.50125e-05)
(0.00426163 0 2.1627e-05)
(0.00423312 0 1.85685e-05)
(0.00420873 0 1.58065e-05)
(0.00418806 0 1.33117e-05)
(0.00417075 0 1.10563e-05)
(0.00415649 0 9.01347e-06)
(0.00414498 0 7.15798e-06)
(0.00413598 0 5.46575e-06)
(0.00412928 0 3.91398e-06)
(0.00412469 0 2.48119e-06)
(0.00412206 0 1.14735e-06)
(0.00412125 0 -1.06292e-07)
(0.00412218 0 -1.2981e-06)
(0.00412476 0 -2.44648e-06)
(0.00412895 0 -3.56951e-06)
(0.00413471 0 -4.68472e-06)
(0.00414206 0 -5.80953e-06)
(0.00415101 0 -6.96142e-06)
(0.00416162 0 -8.15825e-06)
(0.00417396 0 -9.4185e-06)
(0.00418814 0 -1.07616e-05)
(0.00420428 0 -1.22082e-05)
(0.00422254 0 -1.37805e-05)
(0.00424312 0 -1.55029e-05)
(0.00426625 0 -1.74019e-05)
(0.00429219 0 -1.95075e-05)
(0.00432126 0 -2.18532e-05)
(0.00435383 0 -2.44768e-05)
(0.0043903 0 -2.74217e-05)
(0.00443117 0 -3.0738e-05)
(0.00447699 0 -3.44834e-05)
(0.00452842 0 -3.87254e-05)
(0.0045862 0 -4.35432e-05)
(0.0046512 0 -4.90302e-05)
(0.00472444 0 -5.52973e-05)
(0.0048071 0 -6.24771e-05)
(0.00490055 0 -7.07288e-05)
(0.00500644 0 -8.02448e-05)
(0.00512667 0 -9.12593e-05)
(0.00526354 0 -0.000104059)
(0.00541978 0 -0.000118997)
(0.00559866 0 -0.000136511)
(0.00580414 0 -0.000157146)
(0.00604103 0 -0.000181582)
(0.00631524 0 -0.00021067)
(0.00663401 0 -0.000245467)
(0.00700632 0 -0.000287274)
(0.00744332 0 -0.00033765)
(0.00795881 0 -0.000398386)
(0.00856978 0 -0.00047141)
(0.0092978 0 -0.000559041)
(0.0101724 0 -0.000666793)
(0.0112301 0 -0.000813427)
(0.0124858 0 -0.00105049)
(0.013965 0 -0.00151663)
(0.0164811 0 -0.00287352)
(0.0240749 0 -0.00869743)
(0.0381072 0 -0.0316522)
(0.0426626 0 -0.0804096)
(0.0198123 0 -0.10125)
(-0.00931871 0 -0.103836)
(-0.0345216 0 -0.0844805)
(-0.0304154 0 -0.0329031)
(-0.0155097 0 -0.00925288)
(-0.00754449 0 -0.00301139)
(-0.00506934 0 -0.00148971)
(-0.00372191 0 -0.000959414)
(-0.00261317 0 -0.000697317)
(-0.00171365 0 -0.000537755)
(-0.00100703 0 -0.00041763)
(-0.00046693 0 -0.000315915)
(-0.00020983 0 -0.000205712)
(3.77105e-06 0 7.03808e-06)
(2.05657e-05 0 -2.77048e-05)
(7.72301e-05 0 -8.83362e-05)
(0.000192425 0 -0.000174077)
(0.000385625 0 -0.000283322)
(0.000674549 0 -0.000413051)
(0.00107385 0 -0.000558891)
(0.00159404 0 -0.000715117)
(0.0022405 0 -0.000874775)
(0.00301263 0 -0.00103002)
(0.00390341 0 -0.00117265)
(0.00489941 0 -0.00129479)
(0.00598133 0 -0.00138954)
(0.00712514 0 -0.00145162)
(0.00830353 0 -0.00147776)
(0.00948757 0 -0.00146692)
(0.0106485 0 -0.00142023)
(0.0117592 0 -0.00134068)
(0.0127956 0 -0.00123276)
(0.0137374 0 -0.00110194)
(0.0145691 0 -0.000954215)
(0.0152795 0 -0.00079567)
(0.0158623 0 -0.000632099)
(0.0163152 0 -0.000468761)
(0.0166399 0 -0.000310193)
(0.0168413 0 -0.000160081)
(0.0169266 0 -2.11331e-05)
(0.0169054 0 0.000105069)
(0.0167878 0 0.000217737)
(0.0165844 0 0.00031638)
(0.0163064 0 0.000400875)
(0.015965 0 0.000471435)
(0.0155711 0 0.000528552)
(0.0151351 0 0.000572951)
(0.0146668 0 0.000605529)
(0.0141754 0 0.000627309)
(0.013669 0 0.00063939)
(0.0131552 0 0.000642905)
(0.0126404 0 0.000638987)
(0.0121304 0 0.00062874)
(0.0116298 0 0.000613214)
(0.0111426 0 0.000593395)
(0.0106721 0 0.000570184)
(0.0102208 0 0.000544398)
(0.00979055 0 0.000516766)
(0.00938271 0 0.000487925)
(0.00899812 0 0.000458427)
(0.0086372 0 0.000428742)
(0.00830001 0 0.000399263)
(0.00798633 0 0.000370314)
(0.00769566 0 0.000342156)
(0.00742735 0 0.000314993)
(0.00718055 0 0.000288979)
(0.00695432 0 0.000264228)
(0.00674764 0 0.000240814)
(0.00655942 0 0.000218781)
(0.00638855 0 0.000198148)
(0.00623392 0 0.000178911)
(0.00609441 0 0.000161047)
(0.00596893 0 0.000144521)
(0.00585641 0 0.000129286)
(0.00575583 0 0.000115287)
(0.00566622 0 0.000102462)
(0.00558664 0 9.07452e-05)
(0.00551623 0 8.00679e-05)
(0.00545417 0 7.03601e-05)
(0.0053997 0 6.15516e-05)
(0.00535211 0 5.35728e-05)
(0.00531075 0 4.63553e-05)
(0.00527503 0 3.98325e-05)
(0.00524441 0 3.39402e-05)
(0.0052184 0 2.86164e-05)
(0.00519655 0 2.3802e-05)
(0.00517848 0 1.94405e-05)
(0.00516383 0 1.54781e-05)
(0.0051523 0 1.18639e-05)
(0.00514362 0 8.54962e-06)
(0.00513756 0 5.48951e-06)
(0.00513393 0 2.6407e-06)
(0.00513257 0 -3.68492e-08)
(0.00513337 0 -2.58186e-06)
(0.00513622 0 -5.03302e-06)
(0.00514106 0 -7.42869e-06)
(0.00514786 0 -9.80633e-06)
(0.00515661 0 -1.22029e-05)
(0.00516736 0 -1.46555e-05)
(0.00518014 0 -1.7202e-05)
(0.00519506 0 -1.98818e-05)
(0.00521225 0 -2.2736e-05)
(0.00523184 0 -2.58084e-05)
(0.00525405 0 -2.9146e-05)
(0.0052791 0 -3.28004e-05)
(0.00530727 0 -3.6828e-05)
(0.00533888 0 -4.12919e-05)
(0.00537433 0 -4.62629e-05)
(0.00541404 0 -5.18211e-05)
(0.00545852 0 -5.80582e-05)
(0.00550837 0 -6.50795e-05)
(0.00556426 0 -7.3007e-05)
(0.00562697 0 -8.19831e-05)
(0.00569742 0 -9.21746e-05)
(0.00577665 0 -0.000103778)
(0.00586588 0 -0.000117028)
(0.00596654 0 -0.000132202)
(0.00608029 0 -0.000149635)
(0.0062091 0 -0.000169734)
(0.00635527 0 -0.000192991)
(0.00652155 0 -0.00022001)
(0.0067112 0 -0.000251536)
(0.00692815 0 -0.000288496)
(0.00717715 0 -0.00033205)
(0.00746399 0 -0.000383659)
(0.00779578 0 -0.000445183)
(0.00818136 0 -0.000519002)
(0.00863189 0 -0.000608192)
(0.00916169 0 -0.00071678)
(0.00978962 0 -0.000850153)
(0.0105415 0 -0.00101582)
(0.0114549 0 -0.00122524)
(0.0125887 0 -0.00149923)
(0.0140381 0 -0.00188264)
(0.015953 0 -0.002475)
(0.0186162 0 -0.00349198)
(0.0227685 0 -0.0055256)
(0.0297871 0 -0.0107508)
(0.037385 0 -0.025847)
(0.0342605 0 -0.0579678)
(0.0168654 0 -0.0757579)
(-0.00598327 0 -0.0775137)
(-0.0247799 0 -0.0609445)
(-0.0281209 0 -0.0272415)
(-0.020022 0 -0.0112888)
(-0.0126732 0 -0.00566185)
(-0.00840414 0 -0.00343617)
(-0.00572879 0 -0.00232539)
(-0.00386202 0 -0.00168519)
(-0.00250617 0 -0.0012696)
(-0.00149626 0 -0.000962865)
(-0.000731394 0 -0.000710636)
(-0.00033735 0 -0.000480746)
(1.65544e-05 0 -1.33938e-05)
(4.79043e-05 0 -7.76521e-05)
(0.000129285 0 -0.000191402)
(0.000275932 0 -0.000352743)
(0.00051036 0 -0.000558276)
(0.000852955 0 -0.000802172)
(0.00132033 0 -0.00107608)
(0.00192428 0 -0.00136911)
(0.00267067 0 -0.00166814)
(0.00355852 0 -0.00195845)
(0.00457946 0 -0.00222473)
(0.00571792 0 -0.00245236)
(0.00695176 0 -0.00262862)
(0.00825362 0 -0.00274382)
(0.00959265 0 -0.00279207)
(0.0109364 0 -0.00277157)
(0.012253 0 -0.00268447)
(0.0135123 0 -0.00253636)
(0.014688 0 -0.00233551)
(0.0157579 0 -0.00209198)
(0.0167049 0 -0.00181676)
(0.017517 0 -0.00152097)
(0.0181871 0 -0.00121525)
(0.0187127 0 -0.000909254)
(0.0190954 0 -0.000611345)
(0.0193401 0 -0.000328357)
(0.0194545 0 -6.5442e-05)
(0.0194485 0 0.000174134)
(0.0193333 0 0.000388617)
(0.0191205 0 0.00057701)
(0.0188224 0 0.000738997)
(0.0184512 0 0.000874887)
(0.018019 0 0.000985524)
(0.0175373 0 0.00107219)
(0.0170173 0 0.0011365)
(0.016469 0 0.00118033)
(0.015902 0 0.00120568)
(0.0153246 0 0.00121465)
(0.0147443 0 0.00120936)
(0.0141676 0 0.00119186)
(0.0136002 0 0.00116412)
(0.0130465 0 0.00112802)
(0.0125106 0 0.00108525)
(0.0119954 0 0.00103737)
(0.0115032 0 0.000985786)
(0.0110358 0 0.000931712)
(0.0105941 0 0.000876215)
(0.010179 0 0.000820207)
(0.00979051 0 0.000764454)
(0.00942854 0 0.00070959)
(0.00909264 0 0.000656127)
(0.00878213 0 0.000604472)
(0.00849613 0 0.000554933)
(0.00823364 0 0.000507739)
(0.00799352 0 0.000463044)
(0.00777459 0 0.000420944)
(0.0075756 0 0.000381481)
(0.00739531 0 0.000344655)
(0.00723246 0 0.000310432)
(0.00708581 0 0.000278749)
(0.00695415 0 0.000249521)
(0.00683633 0 0.000222647)
(0.00673122 0 0.000198011)
(0.00663776 0 0.000175491)
(0.00655496 0 0.000154958)
(0.00648187 0 0.000136278)
(0.00641762 0 0.00011932)
(0.00636138 0 0.000103952)
(0.00631243 0 9.00431e-05)
(0.00627006 0 7.7467e-05)
(0.00623364 0 6.61011e-05)
(0.00620262 0 5.58275e-05)
(0.00617648 0 4.65331e-05)
(0.00615475 0 3.81101e-05)
(0.00613704 0 3.04558e-05)
(0.00612298 0 2.34726e-05)
(0.00611226 0 1.70679e-05)
(0.00610462 0 1.11544e-05)
(0.00609983 0 5.64929e-06)
(0.00609771 0 4.75203e-07)
(0.0060981 0 -4.44213e-06)
(0.0061009 0 -9.1762e-06)
(0.00610603 0 -1.38e-05)
(0.00611344 0 -1.83853e-05)
(0.00612314 0 -2.3003e-05)
(0.00613515 0 -2.77243e-05)
(0.00614952 0 -3.26218e-05)
(0.00616638 0 -3.77707e-05)
(0.00618584 0 -4.32497e-05)
(0.00620809 0 -4.91424e-05)
(0.00623334 0 -5.55386e-05)
(0.00626186 0 -6.25364e-05)
(0.00629396 0 -7.02433e-05)
(0.00633 0 -7.87793e-05)
(0.00637043 0 -8.82786e-05)
(0.00641572 0 -9.88934e-05)
(0.00646645 0 -0.000110797)
(0.00652328 0 -0.00012419)
(0.00658697 0 -0.000139302)
(0.0066584 0 -0.000156402)
(0.00673858 0 -0.000175804)
(0.00682868 0 -0.000197879)
(0.00693006 0 -0.000223067)
(0.00704428 0 -0.000251891)
(0.0071732 0 -0.00028498)
(0.00731896 0 -0.000323094)
(0.00748409 0 -0.000367156)
(0.00767158 0 -0.000418297)
(0.00788499 0 -0.000477913)
(0.00812856 0 -0.000547743)
(0.00840744 0 -0.00062997)
(0.00872784 0 -0.000727368)
(0.00909743 0 -0.000843503)
(0.00952575 0 -0.000983036)
(0.0100249 0 -0.00115219)
(0.0106106 0 -0.00135949)
(0.0113036 0 -0.00161714)
(0.0121328 0 -0.0019435)
(0.0131389 0 -0.00236819)
(0.0143825 0 -0.00294286)
(0.0159526 0 -0.00376423)
(0.0179756 0 -0.00501795)
(0.0206262 0 -0.00705801)
(0.0241203 0 -0.0105874)
(0.0283468 0 -0.0171063)
(0.0310444 0 -0.0292396)
(0.026692 0 -0.0468135)
(0.0141139 0 -0.0579718)
(-0.00235897 0 -0.0590935)
(-0.0159146 0 -0.048753)
(-0.0205226 0 -0.0305857)
(-0.0176489 0 -0.0178681)
(-0.0131768 0 -0.0109341)
(-0.00949393 0 -0.00712646)
(-0.00672454 0 -0.00490746)
(-0.00464838 0 -0.00353757)
(-0.00308203 0 -0.00263069)
(-0.0018814 0 -0.00197919)
(-0.00094331 0 -0.00147317)
(-0.000433147 0 -0.00105656)
(2.6208e-05 0 -5.15677e-05)
(6.84732e-05 0 -0.000147415)
(0.000168765 0 -0.00031829)
(0.000339977 0 -0.000561403)
(0.0006074 0 -0.000871393)
(0.000994014 0 -0.00123934)
(0.00151847 0 -0.00165247)
(0.00219398 0 -0.00209413)
(0.003027 0 -0.00254429)
(0.00401622 0 -0.00298059)
(0.00515197 0 -0.00337988)
(0.00641637 0 -0.00372016)
(0.00778427 0 -0.00398248)
(0.0092248 0 -0.00415257)
(0.0107035 0 -0.00422199)
(0.0121844 0 -0.00418846)
(0.0136327 0 -0.00405558)
(0.0150158 0 -0.00383204)
(0.0163055 0 -0.00353033)
(0.0174786 0 -0.00316552)
(0.0185173 0 -0.00275389)
(0.0194092 0 -0.00231183)
(0.0201475 0 -0.00185492)
(0.0207297 0 -0.00139729)
(0.0211577 0 -0.000951137)
(0.021437 0 -0.000526461)
(0.0215755 0 -0.000130896)
(0.0215835 0 0.00023047)
(0.021473 0 0.000554774)
(0.0212561 0 0.000840449)
(0.0209459 0 0.00108693)
(0.0205554 0 0.00129457)
(0.0200974 0 0.00146452)
(0.0195844 0 0.0015986)
(0.019028 0 0.00169912)
(0.0184394 0 0.00176879)
(0.0178287 0 0.00181053)
(0.0172049 0 0.00182743)
(0.0165764 0 0.00182259)
(0.0159502 0 0.00179907)
(0.0153324 0 0.00175982)
(0.0147284 0 0.0017076)
(0.0141424 0 0.001645)
(0.0135779 0 0.00157436)
(0.0130375 0 0.0014978)
(0.0125233 0 0.00141719)
(0.0120367 0 0.00133415)
(0.0115784 0 0.00125009)
(0.0111488 0 0.00116619)
(0.010748 0 0.00108345)
(0.0103754 0 0.00100266)
(0.0100305 0 0.00092446)
(0.00971231 0 0.000849351)
(0.00941991 0 0.000777695)
(0.00915207 0 0.000709748)
(0.00890755 0 0.00064567)
(0.00868503 0 0.000585543)
(0.00848315 0 0.000529379)
(0.00830057 0 0.000477139)
(0.00813596 0 0.000428735)
(0.00798798 0 0.000384048)
(0.00785538 0 0.000342928)
(0.00773694 0 0.000305208)
(0.00763148 0 0.000270704)
(0.00753791 0 0.000239224)
(0.00745519 0 0.00021057)
(0.00738235 0 0.000184541)
(0.00731849 0 0.000160939)
(0.00726278 0 0.000139567)
(0.00721446 0 0.000120233)
(0.00717283 0 0.000102751)
(0.00713726 0 8.69419e-05)
(0.00710717 0 7.2634e-05)
(0.00708205 0 5.96631e-05)
(0.00706145 0 4.78727e-05)
(0.00704496 0 3.71142e-05)
(0.00703224 0 2.72464e-05)
(0.00702298 0 1.81355e-05)
(0.00701692 0 9.65511e-06)
(0.00701387 0 1.68604e-06)
(0.00701364 0 -5.88539e-06)
(0.00701612 0 -1.31706e-05)
(0.0070212 0 -2.02802e-05)
(0.00702885 0 -2.73236e-05)
(0.00703904 0 -3.44089e-05)
(0.00705181 0 -4.16446e-05)
(0.00706721 0 -4.91414e-05)
(0.00708535 0 -5.70135e-05)
(0.00710637 0 -6.53804e-05)
(0.00713047 0 -7.43688e-05)
(0.00715787 0 -8.41149e-05)
(0.00718885 0 -9.47664e-05)
(0.00722375 0 -0.000106486)
(0.00726296 0 -0.000119454)
(0.00730694 0 -0.000133872)
(0.00735621 0 -0.000149968)
(0.00741139 0 -0.000168003)
(0.00747316 0 -0.000188275)
(0.00754235 0 -0.000211127)
(0.00761987 0 -0.000236958)
(0.00770679 0 -0.000266237)
(0.00780434 0 -0.000299512)
(0.00791393 0 -0.000337432)
(0.00803719 0 -0.00038077)
(0.00817604 0 -0.000430451)
(0.00833268 0 -0.000487589)
(0.00850969 0 -0.000553535)
(0.00871011 0 -0.000629943)
(0.00893751 0 -0.000718849)
(0.00919615 0 -0.000822787)
(0.00949109 0 -0.000944943)
(0.00982845 0 -0.00108937)
(0.0102157 0 -0.0012613)
(0.0106619 0 -0.00146762)
(0.0111786 0 -0.00171759)
(0.0117803 0 -0.00202401)
(0.0124857 0 -0.00240525)
(0.0133191 0 -0.00288863)
(0.0143126 0 -0.00351663)
(0.0155076 0 -0.004358)
(0.0169536 0 -0.00552731)
(0.0186982 0 -0.00721689)
(0.0207585 0 -0.00974361)
(0.0230377 0 -0.0136149)
(0.0250547 0 -0.0195845)
(0.0252751 0 -0.0283642)
(0.0210631 0 -0.0388155)
(0.0119864 0 -0.0457787)
(0.000509074 0 -0.0465534)
(-0.00926828 0 -0.0402613)
(-0.0137276 0 -0.0296527)
(-0.0134932 0 -0.020496)
(-0.01133 0 -0.0141569)
(-0.00887561 0 -0.00998381)
(-0.00666027 0 -0.00722842)
(-0.00480132 0 -0.00536662)
(-0.003287 0 -0.0040587)
(-0.00205834 0 -0.00309345)
(-0.00105361 0 -0.00234513)
(-0.000489173 0 -0.00174473)
(3.08795e-05 0 -0.000100663)
(7.86543e-05 0 -0.000229967)
(0.000189147 0 -0.000461631)
(0.000375572 0 -0.000792403)
(0.000666016 0 -0.00121499)
(0.00108615 0 -0.0017172)
(0.00165693 0 -0.00228141)
(0.00239323 0 -0.00288459)
(0.00330235 0 -0.00349896)
(0.0043827 0 -0.00409357)
(0.00562316 0 -0.00463648)
(0.00700325 0 -0.00509746)
(0.00849433 0 -0.00545074)
(0.0100615 0 -0.00567724)
(0.0116661 0 -0.00576602)
(0.0132686 0 -0.00571476)
(0.0148307 0 -0.00552914)
(0.016318 0 -0.00522158)
(0.0177006 0 -0.00480954)
(0.0189549 0 -0.00431361)
(0.0200631 0 -0.0037558)
(0.0210134 0 -0.00315806)
(0.0217996 0 -0.00254107)
(0.0224201 0 -0.00192345)
(0.0228779 0 -0.00132122)
(0.0231791 0 -0.000747463)
(0.0233323 0 -0.000212234)
(0.0233484 0 0.000277584)
(0.0232398 0 0.000717972)
(0.0230193 0 0.00110675)
(0.0227003 0 0.00144309)
(0.0222964 0 0.00172738)
(0.0218209 0 0.00196107)
(0.0212866 0 0.0021465)
(0.0207059 0 0.00228668)
(0.0200901 0 0.00238516)
(0.0194498 0 0.00244581)
(0.0187946 0 0.00247267)
(0.0181331 0 0.00246987)
(0.0174727 0 0.00244148)
(0.01682 0 0.00239143)
(0.0161807 0 0.00232345)
(0.0155593 0 0.00224101)
(0.0149596 0 0.00214727)
(0.0143845 0 0.00204512)
(0.0138364 0 0.0019371)
(0.0133167 0 0.00182545)
(0.0128265 0 0.00171209)
(0.0123662 0 0.00159867)
(0.0119361 0 0.00148656)
(0.0115357 0 0.00137688)
(0.0111645 0 0.00127054)
(0.0108216 0 0.00116824)
(0.010506 0 0.0010705)
(0.0102165 0 0.000977706)
(0.00995184 0 0.000890089)
(0.00971069 0 0.000807783)
(0.00949164 0 0.000730826)
(0.00929326 0 0.000659177)
(0.00911416 0 0.000592732)
(0.00895297 0 0.000531338)
(0.00880832 0 0.000474802)
(0.00867894 0 0.000422902)
(0.00856359 0 0.000375395)
(0.00846108 0 0.000332022)
(0.00837032 0 0.000292518)
(0.00829027 0 0.000256611)
(0.00821996 0 0.000224033)
(0.00815851 0 0.000194516)
(0.00810509 0 0.0001678)
(0.00805894 0 0.000143632)
(0.00801939 0 0.000121767)
(0.00798582 0 0.00010197)
(0.00795767 0 8.4017e-05)
(0.00793445 0 6.7694e-05)
(0.00791571 0 5.27974e-05)
(0.00790108 0 3.91339e-05)
(0.00789023 0 2.652e-05)
(0.00788288 0 1.47817e-05)
(0.00787879 0 3.75465e-06)
(0.00787778 0 -6.71753e-06)
(0.00787971 0 -1.6787e-05)
(0.00788447 0 -2.66044e-05)
(0.007892 0 -3.63192e-05)
(0.00790228 0 -4.60793e-05)
(0.00791533 0 -5.6033e-05)
(0.00793122 0 -6.63314e-05)
(0.00795003 0 -7.71301e-05)
(0.00797193 0 -8.85917e-05)
(0.00799709 0 -0.000100888)
(0.00802575 0 -0.000114204)
(0.00805821 0 -0.000128739)
(0.00809481 0 -0.000144713)
(0.00813593 0 -0.000162368)
(0.00818206 0 -0.000181975)
(0.00823374 0 -0.000203839)
(0.00829157 0 -0.000228309)
(0.00835628 0 -0.000255781)
(0.00842867 0 -0.000286712)
(0.00850969 0 -0.000321632)
(0.0086004 0 -0.000361157)
(0.00870204 0 -0.000406011)
(0.00881599 0 -0.000457045)
(0.00894388 0 -0.00051527)
(0.00908757 0 -0.000581891)
(0.0092492 0 -0.000658356)
(0.00943126 0 -0.000746413)
(0.00963664 0 -0.000848192)
(0.00986869 0 -0.000966308)
(0.0101314 0 -0.001104)
(0.0104293 0 -0.00126533)
(0.010768 0 -0.00145545)
(0.0111539 0 -0.00168097)
(0.0115949 0 -0.00195054)
(0.0121004 0 -0.00227572)
(0.0126817 0 -0.00267226)
(0.0133524 0 -0.00316223)
(0.0141284 0 -0.0037773)
(0.0150276 0 -0.00456401)
(0.0160669 0 -0.00559201)
(0.0172552 0 -0.00696596)
(0.0185765 0 -0.00884075)
(0.0199546 0 -0.0114355)
(0.021186 0 -0.0150344)
(0.0218041 0 -0.0199315)
(0.0208693 0 -0.0261683)
(0.0171415 0 -0.0327677)
(0.0105314 0 -0.0371694)
(0.00252986 0 -0.0377108)
(-0.00456546 0 -0.0338744)
(-0.00850197 0 -0.0273222)
(-0.00949059 0 -0.0208777)
(-0.00880268 0 -0.0157007)
(-0.00743768 0 -0.0118297)
(-0.00590893 0 -0.0089976)
(-0.00444927 0 -0.00692087)
(-0.00314953 0 -0.00536964)
(-0.00202275 0 -0.00417703)
(-0.00105392 0 -0.00323153)
(-0.000495194 0 -0.00246507)
(2.91355e-05 0 -0.000152567)
(7.56482e-05 0 -0.000316467)
(0.00018542 0 -0.000612435)
(0.000375834 0 -0.00103711)
(0.000678026 0 -0.00158132)
(0.00112064 0 -0.00222943)
(0.00172732 0 -0.00295853)
(0.00251504 0 -0.00373842)
(0.00349219 0 -0.00453258)
(0.00465696 0 -0.00530021)
(0.00599655 0 -0.00599928)
(0.00748736 0 -0.00659021)
(0.00909647 0 -0.0070396)
(0.0107841 0 -0.00732323)
(0.0125067 0 -0.0074279)
(0.0142202 0 -0.00735181)
(0.0158832 0 -0.00710362)
(0.0174588 0 -0.00670053)
(0.0189164 0 -0.00616585)
(0.0202319 0 -0.00552656)
(0.0213886 0 -0.00481099)
(0.0223759 0 -0.004047)
(0.0231892 0 -0.00326055)
(0.0238286 0 -0.00247478)
(0.0242984 0 -0.0017094)
(0.0246061 0 -0.000980453)
(0.0247616 0 -0.000300197)
(0.0247764 0 0.000322882)
(0.0246632 0 0.000883696)
(0.0244356 0 0.00137947)
(0.0241073 0 0.00180915)
(0.0236922 0 0.00217318)
(0.0232038 0 0.00247336)
(0.0226552 0 0.00271259)
(0.0220589 0 0.00289461)
(0.0214263 0 0.0030238)
(0.0207681 0 0.00310496)
(0.0200942 0 0.00314314)
(0.019413 0 0.00314349)
(0.0187323 0 0.00311107)
(0.0180588 0 0.00305083)
(0.0173982 0 0.00296743)
(0.0167552 0 0.00286525)
(0.0161338 0 0.00274831)
(0.0155371 0 0.00262025)
(0.0149674 0 0.00248431)
(0.0144266 0 0.00234337)
(0.0139157 0 0.00219989)
(0.0134353 0 0.002056)
(0.0129856 0 0.00191349)
(0.0125664 0 0.00177381)
(0.0121773 0 0.00163815)
(0.0118173 0 0.00150745)
(0.0114855 0 0.00138241)
(0.0111807 0 0.00126353)
(0.0109017 0 0.00115116)
(0.0106472 0 0.00104548)
(0.0104156 0 0.000946571)
(0.0102057 0 0.000854395)
(0.0100158 0 0.000768837)
(0.00984476 0 0.000689716)
(0.00969105 0 0.000616798)
(0.00955336 0 0.000549809)
(0.00943043 0 0.000488445)
(0.00932102 0 0.000432383)
(0.009224 0 0.000381287)
(0.00913829 0 0.000334816)
(0.00906288 0 0.000292628)
(0.00899683 0 0.000254382)
(0.00893928 0 0.000219747)
(0.00888946 0 0.000188399)
(0.00884663 0 0.000160026)
(0.00881014 0 0.000134327)
(0.00877942 0 0.000111014)
(0.00875393 0 8.98131e-05)
(0.00873321 0 7.04629e-05)
(0.00871686 0 5.27148e-05)
(0.00870452 0 3.63328e-05)
(0.0086959 0 2.10929e-05)
(0.00869074 0 6.78263e-06)
(0.00868884 0 -6.79998e-06)
(0.00869005 0 -1.98501e-05)
(0.00869425 0 -3.25604e-05)
(0.00870136 0 -4.5122e-05)
(0.00871137 0 -5.77243e-05)
(0.00872428 0 -7.05574e-05)
(0.00874014 0 -8.38143e-05)
(0.00875905 0 -9.76936e-05)
(0.00878115 0 -0.000112402)
(0.00880663 0 -0.000128159)
(0.00883572 0 -0.000145197)
(0.00886871 0 -0.00016377)
(0.00890592 0 -0.000184153)
(0.00894776 0 -0.000206651)
(0.00899468 0 -0.000231605)
(0.00904723 0 -0.000259396)
(0.009106 0 -0.000290457)
(0.00917169 0 -0.000325281)
(0.0092451 0 -0.000364433)
(0.00932713 0 -0.000408566)
(0.00941881 0 -0.000458439)
(0.00952131 0 -0.000514936)
(0.00963596 0 -0.000579095)
(0.00976429 0 -0.000652142)
(0.00990802 0 -0.000735534)
(0.0100691 0 -0.000831008)
(0.0102499 0 -0.000940655)
(0.0104529 0 -0.00106701)
(0.010681 0 -0.00121315)
(0.0109377 0 -0.00138289)
(0.0112269 0 -0.00158094)
(0.011553 0 -0.00181325)
(0.0119212 0 -0.00208737)
(0.0123373 0 -0.00241302)
(0.0128077 0 -0.00280299)
(0.0133398 0 -0.00327423)
(0.0139407 0 -0.00384973)
(0.0146174 0 -0.00456098)
(0.0153735 0 -0.00545154)
(0.0162058 0 -0.0065817)
(0.0170947 0 -0.00803359)
(0.0179894 0 -0.00991465)
(0.0187809 0 -0.0123538)
(0.0192629 0 -0.0154791)
(0.0190778 0 -0.0193531)
(0.0176772 0 -0.0238096)
(0.0144961 0 -0.0281386)
(0.00959391 0 -0.0309778)
(0.00388186 0 -0.0313544)
(-0.00131267 0 -0.0290062)
(-0.00467891 0 -0.0248168)
(-0.00615268 0 -0.0202785)
(-0.00631483 0 -0.0162178)
(-0.0057396 0 -0.012872)
(-0.00481847 0 -0.0102125)
(-0.00378567 0 -0.00812203)
(-0.00276851 0 -0.00647018)
(-0.00182105 0 -0.00514364)
(-0.000963267 0 -0.00405713)
(-0.000457089 0 -0.00315175)
(2.00737e-05 0 -0.000197656)
(5.76352e-05 0 -0.000396055)
(0.000154297 0 -0.000759218)
(0.000336259 0 -0.00128392)
(0.000638128 0 -0.00195919)
(0.00109191 0 -0.00276577)
(0.00172452 0 -0.00367498)
(0.0025555 0 -0.00464859)
(0.00359467 0 -0.00564006)
(0.00484006 0 -0.00659722)
(0.00627681 0 -0.0074663)
(0.00787748 0 -0.00819695)
(0.00960383 0 -0.00874713)
(0.01141 0 -0.00908716)
(0.0132466 0 -0.00920189)
(0.0150644 0 -0.00909097)
(0.016818 0 -0.00876729)
(0.0184685 0 -0.00825414)
(0.0199843 0 -0.00758199)
(0.0213423 0 -0.00678519)
(0.0225271 0 -0.00589912)
(0.0235302 0 -0.00495797)
(0.0243493 0 -0.00399314)
(0.0249872 0 -0.00303221)
(0.0254501 0 -0.00209843)
(0.0257476 0 -0.00121045)
(0.0258909 0 -0.000382446)
(0.0258927 0 0.000375874)
(0.0257661 0 0.00105857)
(0.0255255 0 0.00166238)
(0.0251848 0 0.00218611)
(0.0247581 0 0.00263041)
(0.024259 0 0.00299748)
(0.0237005 0 0.00329085)
(0.0230951 0 0.00351502)
(0.022454 0 0.00367526)
(0.0217878 0 0.00377731)
(0.0211059 0 0.00382722)
(0.020417 0 0.00383111)
(0.0197285 0 0.00379508)
(0.019047 0 0.00372501)
(0.0183781 0 0.00362652)
(0.0177266 0 0.00350488)
(0.0170964 0 0.00336491)
(0.0164906 0 0.00321103)
(0.0159116 0 0.00304718)
(0.0153612 0 0.00287683)
(0.0148406 0 0.00270304)
(0.0143505 0 0.00252839)
(0.0138911 0 0.00235509)
(0.0134623 0 0.00218496)
(0.0130636 0 0.00201947)
(0.0126943 0 0.0018598)
(0.0123535 0 0.00170684)
(0.0120401 0 0.00156125)
(0.0117527 0 0.00142346)
(0.0114902 0 0.00129374)
(0.011251 0 0.0011722)
(0.0110339 0 0.00105883)
(0.0108373 0 0.000953511)
(0.0106599 0 0.000856027)
(0.0105003 0 0.000766113)
(0.0103571 0 0.000683446)
(0.0102291 0 0.000607665)
(0.010115 0 0.000538383)
(0.0100137 0 0.000475196)
(0.00992401 0 0.000417692)
(0.00984496 0 0.000365454)
(0.0097756 0 0.000318072)
(0.00971504 0 0.00027514)
(0.00966248 0 0.000236263)
(0.00961717 0 0.00020106)
(0.00957844 0 0.000169162)
(0.00954569 0 0.000140217)
(0.00951838 0 0.00011389)
(0.00949602 0 8.98585e-05)
(0.0094782 0 6.78181e-05)
(0.00946455 0 4.74787e-05)
(0.00945475 0 2.85645e-05)
(0.00944853 0 1.08133e-05)
(0.0094457 0 -6.024e-06)
(0.00944607 0 -2.21874e-05)
(0.00944952 0 -3.79125e-05)
(0.00945597 0 -5.34328e-05)
(0.00946539 0 -6.89801e-05)
(0.00947776 0 -8.47867e-05)
(0.00949315 0 -0.000101088)
(0.00951163 0 -0.000118127)
(0.00953333 0 -0.000136153)
(0.00955843 0 -0.000155433)
(0.00958715 0 -0.000176248)
(0.00961977 0 -0.000198903)
(0.00965659 0 -0.00022373)
(0.009698 0 -0.000251093)
(0.00974445 0 -0.000281399)
(0.00979642 0 -0.000315102)
(0.00985451 0 -0.000352714)
(0.00991936 0 -0.000394817)
(0.00999172 0 -0.000442076)
(0.0100724 0 -0.000495257)
(0.0101624 0 -0.000555242)
(0.0102628 0 -0.000623059)
(0.0103748 0 -0.000699906)
(0.0104998 0 -0.000787191)
(0.0106392 0 -0.000886577)
(0.0107948 0 -0.00100004)
(0.0109686 0 -0.00112992)
(0.0111627 0 -0.00127907)
(0.0113794 0 -0.0014509)
(0.0116216 0 -0.00164958)
(0.0118922 0 -0.00188025)
(0.0121944 0 -0.00214928)
(0.0125317 0 -0.00246462)
(0.0129076 0 -0.00283635)
(0.0133256 0 -0.00327736)
(0.0137887 0 -0.00380425)
(0.0142984 0 -0.00443861)
(0.0148534 0 -0.00520862)
(0.0154469 0 -0.00615082)
(0.0160622 0 -0.00731193)
(0.0166649 0 -0.00874947)
(0.0171918 0 -0.0105291)
(0.0175353 0 -0.0127144)
(0.0175249 0 -0.0153423)
(0.0169136 0 -0.0183735)
(0.0153933 0 -0.0216031)
(0.0127187 0 -0.0245399)
(0.00899714 0 -0.026427)
(0.00479191 0 -0.0267025)
(0.000908452 0 -0.0252405)
(-0.0019283 0 -0.022483)
(-0.00351944 0 -0.0192591)
(-0.00413136 0 -0.0161208)
(-0.00407975 0 -0.0133277)
(-0.00363196 0 -0.0109513)
(-0.0029809 0 -0.00896952)
(-0.00225232 0 -0.00732196)
(-0.00151621 0 -0.00594088)
(-0.000812902 0 -0.00476736)
(-0.000388992 0 -0.0037539)
(3.17233e-06 0 -0.000225351)
(2.35408e-05 0 -0.00045671)
(9.38346e-05 0 -0.000889329)
(0.000254224 0 -0.00152019)
(0.00054328 0 -0.00233654)
(0.000996872 0 -0.00331537)
(0.0016458 0 -0.00442168)
(0.00251283 0 -0.00560826)
(0.0036096 0 -0.00681701)
(0.00493399 0 -0.00798247)
(0.00646866 0 -0.00903708)
(0.00818135 0 -0.00991785)
(0.0100272 0 -0.0105729)
(0.011953 0 -0.0109668)
(0.013902 0 -0.011083)
(0.0158189 0 -0.0109239)
(0.0176544 0 -0.0105083)
(0.019367 0 -0.00986719)
(0.0209251 0 -0.0090399)
(0.0223068 0 -0.00806934)
(0.0234991 0 -0.00699876)
(0.0244965 0 -0.00586914)
(0.0253001 0 -0.0047174)
(0.0259156 0 -0.00357546)
(0.0263523 0 -0.00246973)
(0.026622 0 -0.00142112)
(0.026738 0 -0.000445194)
(0.026714 0 0.000447578)
(0.0265642 0 0.00125074)
(0.0263034 0 0.00196074)
(0.0259459 0 0.00257643)
(0.0255058 0 0.00309882)
(0.0249968 0 0.0035307)
(0.0244317 0 0.00387631)
(0.0238223 0 0.004141)
(0.0231796 0 0.00433095)
(0.0225138 0 0.00445287)
(0.0218338 0 0.00451379)
(0.0211478 0 0.0045208)
(0.0204629 0 0.00448097)
(0.0197854 0 0.0044011)
(0.0191205 0 0.00428772)
(0.0184728 0 0.0041469)
(0.017846 0 0.00398429)
(0.0172431 0 0.00380501)
(0.0166665 0 0.00361366)
(0.0161178 0 0.00341433)
(0.0155983 0 0.00321059)
(0.0151087 0 0.00300551)
(0.0146493 0 0.00280169)
(0.0142199 0 0.0026013)
(0.0138202 0 0.00240612)
(0.0134494 0 0.00221756)
(0.0131068 0 0.0020367)
(0.0127913 0 0.00186435)
(0.0125017 0 0.00170106)
(0.0122367 0 0.00154717)
(0.011995 0 0.00140285)
(0.0117753 0 0.0012681)
(0.0115761 0 0.0011428)
(0.011396 0 0.00102674)
(0.0112338 0 0.000919592)
(0.0110881 0 0.000821007)
(0.0109577 0 0.000730567)
(0.0108412 0 0.000647824)
(0.0107376 0 0.00057231)
(0.0106458 0 0.000503542)
(0.0105647 0 0.000441035)
(0.0104934 0 0.000384304)
(0.010431 0 0.000332874)
(0.0103768 0 0.000286278)
(0.0103299 0 0.000244067)
(0.0102897 0 0.000205806)
(0.0102555 0 0.000171077)
(0.0102269 0 0.000139482)
(0.0102033 0 0.000110641)
(0.0101843 0 8.4192e-05)
(0.0101696 0 5.97902e-05)
(0.0101588 0 3.71078e-05)
(0.0101516 0 1.58329e-05)
(0.0101478 0 -4.33178e-06)
(0.0101473 0 -2.36714e-05)
(0.0101499 0 -4.24646e-05)
(0.0101555 0 -6.09871e-05)
(0.010164 0 -7.95129e-05)
(0.0101755 0 -9.83161e-05)
(0.01019 0 -0.000117674)
(0.0102076 0 -0.000137872)
(0.0102284 0 -0.000159203)
(0.0102524 0 -0.000181978)
(0.0102801 0 -0.000206526)
(0.0103115 0 -0.0002332)
(0.010347 0 -0.000262385)
(0.0103869 0 -0.000294501)
(0.0104317 0 -0.000330015)
(0.0104818 0 -0.000369448)
(0.0105377 0 -0.000413382)
(0.0106001 0 -0.00046248)
(0.0106695 0 -0.000517493)
(0.0107468 0 -0.000579282)
(0.0108328 0 -0.000648835)
(0.0109284 0 -0.000727296)
(0.0110347 0 -0.000815991)
(0.0111529 0 -0.00091647)
(0.0112842 0 -0.00103055)
(0.0114301 0 -0.00116036)
(0.011592 0 -0.00130845)
(0.0117718 0 -0.00147782)
(0.0119711 0 -0.00167208)
(0.0121919 0 -0.00189559)
(0.0124361 0 -0.00215361)
(0.0127057 0 -0.00245257)
(0.0130025 0 -0.00280037)
(0.0133279 0 -0.00320677)
(0.0136825 0 -0.00368387)
(0.0140657 0 -0.00424676)
(0.0144743 0 -0.00491422)
(0.0149012 0 -0.00570941)
(0.0153331 0 -0.00666049)
(0.0157462 0 -0.00780043)
(0.0161014 0 -0.00916529)
(0.0163368 0 -0.0107894)
(0.0163608 0 -0.0126943)
(0.0160454 0 -0.0148696)
(0.0152302 0 -0.0172403)