/*--------------------------------*- C++ -*----------------------------------*\
  =========                 |
  \\      /  F ield         | OpenFOAM: The Open Source CFD Toolbox
   \\    /   O peration     | Website:  https://openfoam.org
    \\  /    A nd           | Version:  13
     \\/     M anipulation  |
\*---------------------------------------------------------------------------*/
FoamFile
{
    format      ascii;
    class       volScalarField;
    location    "79.831886";
    object      T;
}
// * * * * * * * * * * * * * * * * * * * * * * * * * * * * * * * * * * * * * //

dimensions      [0 0 0 1 0 0 0];

internalField   nonuniform List<scalar> 
5712
(
817.462
817.128
816.566
816.05
815.188
814.669
813.241
812.824
813.591
813.103
815.116
814.621
816.215
815.743
817.031
816.673
814.8
814.142
813.912
813.002
812.441
811.593
811.632
810.557
818.697
820.715
818.336
820.218
817.857
819.786
817.296
819.113
815.946
816.977
815.002
816.304
818.64
817.532
812.801
811.169
811.924
810.711
810.661
809.296
809.614
808.58
814.823
813.115
813.845
812.557
816.422
814.765
823.022
824.372
822.058
823.455
822.084
823.782
820.956
822.509
820.713
823.019
819.005
821.13
817.693
819.79
816.216
818.343
814.343
814.056
812.925
812.796
811.22
810.842
810.108
809.727
815.635
816.072
817.319
817.423
811.728
811.75
810.647
810.882
809.101
808.787
808.154
807.982
814.263
814.953
813.051
814.05
818.288
820.858
819.319
822.226
820.121
822.767
820.742
823.772
816.784
819.274
818.153
820.997
815.462
817.909
817.237
820.033
826.263
829.254
826.754
829.734
825.387
828.161
826.285
829.123
823.897
826.016
825.483
827.813
816.37
812.664
819.727
822.26
824.987
813.158
817.073
821.066
823.777
826.742
812.248
815.738
819.121
822.321
825.443
832.017
833.329
833.578
834.752
830.62
832.131
832.638
833.907
828.195
829.889
831.031
832.546
813.973
815.308
818.253
820.098
822.193
824.12
825.349
827.267
829.539
831.482
812.846
813.923
816.755
818.692
820.429
822.65
824.088
826.499
828.701
831.257
815.018
817.207
813.446
815.385
811.184
811.764
809.788
810.083
817.332
819.939
818.87
821.637
812.109
814.058
811.254
813.113
808.663
808.939
807.859
808.046
815.928
818.589
815.063
817.664
821.756
824.941
827.239
831.129
822.991
826.329
828.053
831.866
820.614
823.701
826.454
830.284
819.534
822.651
825.315
828.94
833.654
834.155
835.199
833.959
834.096
835.04
832.759
833.402
834.512
833.287
833.48
834.5
830.91
831.79
833.04
832.265
832.611
833.76
816.95
818.838
820.861
822.051
823.687
825.465
825.926
827.317
828.871
828.722
829.87
831.351
831.464
831.979
833.33
815.436
817.546
819.83
821.256
823.462
825.722
825.247
827.174
829.187
828.476
829.882
831.644
831.435
832.126
833.687
808.244
807.563
807.647
806.774
810.139
809.294
809.449
808.407
807.78
806.313
807.617
806.248
807.391
806.079
807.101
805.867
806.151
806.721
805.8
806.466
805.844
805.375
806.098
805.31
807.577
806.692
805.769
805.032
805.253
804.543
805.104
804.38
804.839
803.536
805.084
803.85
804.676
803.327
804.742
803.486
804.533
803.053
804.224
802.86
803.991
802.778
803.371
802.355
806.632
806.026
805.865
805.179
808.624
808.093
807.714
807.135
804.565
803.751
805.232
804.491
805.11
804.446
804.356
803.797
806.85
806.308
806.012
805.581
803.906
803.105
803.22
802.531
803.47
802.281
802.799
802.07
804.005
802.742
803.445
802.612
802.936
801.872
802.232
801.602
802.342
801.434
801.733
801.197
804.848
805.434
803.656
804.279
804.848
805.47
803.576
804.224
804.848
805.411
803.448
804.031
807.172
809.523
805.691
804.532
803.286
809.973
807.643
806.248
805.11
803.801
809.1
806.814
805.176
804.067
803.147
806.477
807.925
805.34
806.748
806.412
807.791
805.178
806.531
806.228
807.529
804.864
806.127
810.556
811.654
808.089
809.208
806.671
807.824
805.594
806.772
804.366
805.558
809.452
810.08
807.11
807.745
805.521
806.291
804.493
805.447
803.692
804.892
805.859
806.044
804.991
804.923
807.993
808.106
806.943
806.729
803.727
803.98
804.472
804.934
804.325
804.059
803.68
803.347
806.127
805.723
805.4
804.914
803.131
803.211
802.556
802.575
802.934
803.523
802.539
803.499
803.616
804.386
803.072
804.169
802.377
802.81
802.079
802.913
801.909
802.279
801.67
802.394
809.902
811.865
813.715
809.186
811.405
813.261
809.644
811.632
813.524
808.871
811.106
813.042
809.268
811.218
813.139
808.359
810.699
812.766
813.149
815.03
817.07
810.741
812.695
814.781
809.389
811.43
813.553
808.436
810.472
812.524
807.8
810.262
812.515
811.256
813.286
815.596
808.987
811.061
813.381
807.724
809.927
812.317
807.144
809.468
811.881
807.241
809.822
812.299
802.953
803.743
805.937
810.032
803.319
804.17
806.441
810.575
802.796
803.619
805.819
809.954
803.032
803.941
806.233
810.38
802.589
803.459
805.568
809.579
802.502
803.485
805.738
809.836
802.572
803.67
806.085
810.286
802.342
803.575
806.089
810.32
802.102
803.15
805.349
809.409
802.173
803.298
805.308
808.958
802.448
803.383
805.368
809.135
802.56
803.568
805.433
808.871
801.823
802.982
805.356
809.566
801.836
803.065
805.194
808.93
801.537
802.806
805.264
809.452
801.542
802.862
805.055
808.775
803.016
803.714
805.705
809.557
803.528
804.11
805.805
809.168
802.972
803.694
805.657
809.486
803.507
804.118
805.803
809.136
802.911
803.679
805.578
809.295
803.402
804.08
805.769
809.061
802.895
803.725
805.528
809.026
803.302
804.055
805.723
808.922
802.946
803.846
805.566
808.767
804.322
804.801
806.322
808.715
805.214
805.628
807.184
809.425
804.224
804.747
806.28
808.669
805.113
805.578
807.154
809.404
804.047
804.654
806.224
808.63
804.935
805.493
807.109
809.364
803.789
804.512
806.118
808.535
804.693
805.368
807.035
809.309
803.454
804.325
805.989
808.431
804.408
805.225
806.955
809.254
802.81
803.962
805.815
808.35
803.67
804.802
806.69
809.074
803.127
804.145
805.906
808.397
804.038
805.015
806.824
809.161
802.526
803.792
805.73
808.311
803.33
804.601
806.569
808.978
802.253
803.617
805.612
808.215
803.02
804.406
806.441
808.877
816.318
821.407
825.76
829.317
832.069
816.635
821.669
826.01
829.564
832.315
816.282
821.389
825.748
829.308
832.061
816.58
821.632
825.982
829.539
832.292
816.213
821.358
825.728
829.292
832.047
816.352
821.435
825.797
829.36
832.116
816.479
821.569
825.937
829.504
832.261
816.406
821.515
825.896
829.471
832.232
816.169
821.333
825.712
829.281
832.038
816.429
821.71
826.106
829.676
832.432
816.226
821.424
825.805
829.371
832.127
816.51
821.796
826.189
829.755
832.51
816.165
821.334
825.72
829.292
832.052
816.459
821.751
826.154
829.727
832.484
816.089
821.282
825.681
829.262
832.024
816.442
821.758
826.171
829.75
832.51
816.355
821.527
825.892
829.449
832.201
816.73
821.981
826.35
829.905
832.654
816.347
821.536
825.905
829.465
832.217
816.721
821.981
826.355
829.911
832.66
816.354
821.575
825.953
829.515
832.268
816.726
822.003
826.382
829.94
832.69
816.467
821.739
826.126
829.69
832.444
816.79
822.083
826.467
830.027
832.778
816.692
821.984
826.373
829.936
832.688
840.051
840.92
839.673
840.559
838.983
839.965
838.111
839.258
837.253
838.574
835.918
837.453
836.605
838.102
835.235
836.717
834.518
835.869
849.74
860.4
869.407
876.448
881.279
849.578
860.314
869.423
876.511
881.422
849.57
860.31
869.35
876.406
881.241
849.428
860.251
869.368
876.496
881.396
849.229
860.119
869.223
876.31
881.159
849.099
860.067
869.246
876.405
881.317
848.77
859.844
869.037
876.169
881.037
848.679
859.817
869.077
876.277
881.208
848.236
859.496
868.792
875.983
880.877
848.227
859.521
868.869
876.117
881.069
847.085
858.636
868.141
875.46
880.408
847.196
858.754
868.289
875.644
880.634
847.663
859.077
868.483
875.739
880.662
847.741
859.17
868.612
875.913
880.883
846.504
858.181
867.783
875.163
880.139
846.576
858.269
867.902
875.321
880.338
845.905
857.707
867.406
874.852
879.859
845.892
857.746
867.477
874.968
880.03
806.235
807.589
808.693
807.145
808.974
808.779
808.732
808.468
809.198
808.833
810.996
810.563
811.907
811.419
810.551
810.145
810.009
809.732
809.887
809.672
807.165
806.734
810.29
811.763
812.281
812.395
811.039
810.783
812.557
810.355
814.053
816.351
810.638
811.372
813.134
811.071
811.9
811.991
809.273
809.007
809.882
809.504
809.111
808.7
809.061
809.624
811.599
811.193
810.54
810.138
807.773
807.161
808.07
807.555
808.099
808.319
809.203
810.479
809.201
804.766
803.519
802.972
802.999
803.621
804.976
803.952
803.485
803.621
804.435
809.134
808.591
808.53
808.984
809.977
810.651
810.157
810.145
810.636
811.647
811.153
810.637
810.601
811.072
812.071
811.286
810.793
810.781
811.272
812.281
809.897
809.369
809.321
809.784
810.781
808.158
806.55
805.692
805.489
805.924
809.761
808.029
807.123
806.92
807.434
808.516
807.319
806.668
806.673
807.419
811.474
809.815
808.978
808.851
809.496
813.831
812.131
811.283
811.15
811.798
809.2
808.351
807.998
808.227
809.1
809.684
808.605
808.054
808.139
808.934
811.5
810.462
809.945
810.054
810.861
809.737
808.991
808.731
809.029
809.939
810.477
809.639
809.296
809.532
810.408
810.683
809.962
809.725
810.039
810.955
806.88
805.511
804.804
804.704
805.236
807.392
806.392
805.905
806.027
806.838
808.522
807.751
807.469
807.751
808.652
808.209
807.509
807.294
807.628
808.557
807.705
806.894
806.576
806.83
807.715
807.378
806.653
806.414
806.73
807.651
807.834
807.213
807.075
807.469
808.432
808.407
807.792
807.659
808.056
809.02
810.393
809.788
809.661
810.061
811.023
810.023
809.46
809.377
809.812
810.794
809.27
808.595
808.402
808.752
809.689
808.911
808.284
808.138
808.525
809.483
805.45
804.173
803.581
803.572
804.155
805.52
804.554
804.123
804.288
805.12
806.165
805.037
804.468
804.499
805.178
806.105
805.269
804.934
805.175
806.054
806.734
805.97
805.696
805.985
806.891
806.74
805.779
805.323
805.466
806.288
807.964
807.329
807.176
807.559
808.515
809.304
808.737
808.651
809.085
810.067
807.925
807.247
807.054
807.404
808.343
807.316
808.009
807.374
808.142
805.537
806.343
805.506
806.219
807.439
807.53
808.182
808.034
805.558
805.597
806.303
806.082
809.184
811.003
809.8
811.546
809.191
810.842
809.921
811.538
809.959
809.311
809.58
809.155
810.593
811.242
809.093
809.871
808.752
809.619
807.277
808.102
806.793
807.6
810.843
811.683
810.327
811.303
812.166
813.192
812.657
814.075
813.12
814.466
812.547
814.24
813.154
814.649
812.261
814.574
812.669
814.713
813.524
815.618
814.716
816.858
808.097
808.554
808.451
808.978
805.748
805.889
806.13
806.253
810.671
812.019
810.358
811.575
809.024
809.491
809.765
810.128
806.688
806.72
807.368
807.29
811.252
812.555
812.061
813.252
812.965
815.531
815.163
818.095
812.768
815.542
814.787
817.883
813.522
815.974
815.684
818.531
814.383
816.801
816.414
819.21
812.816
813.697
814.404
815.791
812.689
813.409
814.651
815.979
812.444
812.831
815.09
816.185
808.009
805.581
810.382
812.916
816.114
805.503
807.813
810.185
812.858
816.691
805.698
808.305
811.299
814.565
817.923
815.103
815.704
819.397
820.632
814.446
815.05
819.135
820.368
813.47
813.962
818.814
820.056
805.542
805.85
808.007
808.385
810.577
810.964
813.668
814.178
819.21
820.543
805.694
806.002
808.564
809.371
811.824
812.866
815.599
816.862
820.695
822.321
809.218
810.637
809.586
811.037
805.951
806.026
806.259
806.242
813.272
815.389
812.809
814.814
809.896
811.569
810.527
812.315
806.633
806.709
807.19
807.325
813.593
815.975
814.298
816.827
817.678
820.448
823.29
826.827
816.959
819.641
822.288
825.592
818.221
821.093
824.135
827.783
818.725
821.79
824.576
828.158
815.886
816.378
819.727
819.743
815.257
815.804
819.561
819.518
814.318
815.129
819.388
819.379
806.5
807.668
809.097
810.195
811.585
812.529
814.67
815.551
819.676
819.576
806.639
807.891
810.461
811.607
813.816
814.65
817.191
817.508
820.651
820.279
802.57
802.513
803.291
802.98
803.902
803.844
804.664
804.337
801.623
800.933
802.301
801.587
801.647
801.008
802.381
801.696
802.259
801.633
802.177
801.707
801.154
801.744
803.654
804.46
805.005
805.794
803.139
804.06
802.87
803.683
802.595
803.432
800.502
800.188
801.137
800.786
800.519
800.138
801.183
800.744
800.585
800.08
801.086
800.504
801.852
801.183
802.586
801.774
802.267
802.2
802.607
802.435
803.775
803.735
804.142
804.037
801.573
801.34
801.266
801.154
803.105
802.791
803.696
803.239
804.669
804.452
805.299
804.957
802.041
801.644
802.598
802.04
800.818
800.252
800.694
800.37
800.544
800.079
800.546
800.271
801.258
800.584
800.953
800.566
801.777
800.995
801.301
800.846
800.227
800.342
799.958
800.147
800.294
800.418
799.968
800.174
800.436
800.539
800.012
800.196
802.135
803.616
801.158
800.491
800.107
803.63
802.211
801.253
800.591
800.239
803.58
802.106
801.101
800.521
800.282
800.806
801.611
800.704
801.576
800.812
801.563
800.663
801.499
800.838
801.505
800.603
801.369
803.628
803.927
802.21
802.591
801.333
801.818
800.761
801.332
800.546
801.243
803.483
803.575
802.036
802.187
801.115
801.423
800.635
801.129
800.547
801.238
801.969
801.862
802.24
801.977
803.483
803.245
803.811
803.38
801.295
801.33
801.075
801.233
802.685
802.303
803.135
802.771
804.291
803.745
804.792
804.269
801.669
801.622
802.069
802.053
800.81
801.162
800.788
801.449
800.647
801.096
800.632
801.342
801.087
801.397
801.021
801.689
801.462
801.796
801.319
801.999
802.593
803.508
802.844
803.928
802.478
803.46
802.745
803.893
802.375
803.455
802.591
803.919
804.576
805.751
803.314
804.521
802.588
803.81
802.184
803.441
802.472
804.034
804.081
805.435
802.798
804.221
802.207
803.703
802.118
803.684
802.603
804.37
800.634
802.182
804.873
809.313
801.189
802.732
805.456
809.906
800.597
802.136
804.817
809.29
801.127
802.654
805.353
809.787
800.567
802.095
804.641
808.97
800.898
802.399
804.988
809.328
801.494
802.939
805.58
809.942
801.951
803.309
805.905
810.193
800.712
802.205
804.689
808.949
800.983
802.488
804.729
808.529
800.629
802.153
804.519
808.559
800.93
802.465
804.665
808.33
800.936
802.378
804.929
809.259
801.106
802.566
804.83
808.647
801.23
802.597
805.116
809.345
801.294
802.693
804.931
808.677
800.455
801.998
804.538
808.764
800.712
802.244
804.534
808.286
800.489
802.029
804.529
808.729
800.765
802.299
804.568
808.285
800.572
802.109
804.515
808.592
800.831
802.369
804.611
808.272
800.738
802.276
804.542
808.371
800.925
802.468
804.651
808.201
800.971
802.518
804.655
808.141
801.311
802.835
804.988
807.704
802.096
803.617
805.807
808.34
801.307
802.836
804.982
807.687
802.094
803.624
805.814
808.346
801.315
802.854
805.005
807.714
802.105
803.648
805.842
808.363
801.328
802.88
805.009
807.709
802.117
803.679
805.868
808.385
801.361
802.926
805.024
807.701
802.151
803.735
805.918
808.427
801.597
803.142
805.229
807.878
802.308
803.889
806.045
808.553
801.456
803.021
805.119
807.785
802.197
803.791
805.964
808.47
801.786
803.291
805.366
808.009
802.5
804.042
806.172
808.656
802.005
803.449
805.489
808.112
802.746
804.221
806.309
808.77
815.892
821.145
825.595
829.206
831.983
816.228
821.417
825.851
829.457
832.231
815.893
821.15
825.598
829.207
831.982
816.224
821.412
825.843
829.446
832.219
815.869
821.148
825.596
829.203
831.978
816.056
821.253
825.682
829.283
832.056
816.273
821.442
825.857
829.45
832.219
816.328
821.467
825.866
829.45
832.216
815.902
821.17
825.61
829.212
831.984
816.193
821.567
826.017
829.616
832.385
815.912
821.233
825.685
829.291
832.064
816.228
821.626
826.083
829.684
832.454
815.981
821.221
825.648
829.244
832.014
816.297
821.653
826.092
829.686
832.452
816.025
821.243
825.657
829.245
832.011
816.385
821.724
826.15
829.736
832.499
815.908
821.256
825.722
829.335
832.112
816.269
821.704
826.178
829.789
832.563
815.926
821.281
825.746
829.358
832.133
816.28
821.717
826.19
829.8
832.573
815.976
821.347
825.81
829.419
832.193
816.323
821.762
826.232
829.839
832.611
816.129
821.536
826
829.605
832.377
816.435
821.87
826.334
829.938
832.708
816.38
821.797
826.256
829.858
832.627
828.531
829.525
828.665
829.682
828.976
830.019
829.472
830.496
830.276
831.164
832.33
833.489
831.412
832.42
833.115
834.391
833.821
835.114
841.305
854.334
864.847
872.796
878.067
841.013
854.177
864.827
872.836
878.2
841.431
854.423
864.912
872.846
878.109
841.178
854.305
864.897
872.92
878.256
841.686
854.601
865.039
872.944
878.193
841.427
854.475
865.018
873.012
878.335
842.084
854.874
865.237
873.099
878.327
841.793
854.724
865.196
873.151
878.455
842.65
855.257
865.516
873.322
878.523
842.267
855.04
865.425
873.333
878.615
844.009
856.207
866.225
873.887
879.011
843.757
856.053
866.168
873.911
879.1
843.319
855.706
865.847
873.586
878.753
842.95
855.484
865.748
873.586
878.829
844.661
856.71
866.615
874.201
879.283
844.523
856.632
866.606
874.257
879.395
845.295
857.218
867.017
874.531
879.573
845.223
857.208
867.047
874.615
879.715
805.206
806.488
805.611
804.272
802.601
803.294
802.587
803.378
803.92
804.742
803.919
804.624
817.251
817.039
816.503
815.652
814.503
813.12
817.346
817.144
816.635
815.837
814.789
813.558
817.812
818.653
817.571
818.378
816.969
817.696
816.001
816.579
814.705
815.151
813.201
813.682
811.642
810.248
809.063
808.097
807.382
806.854
812.248
810.982
809.85
808.904
808.172
807.654
816.218
815.809
815.879
816.431
817.467
816.003
815.591
815.659
816.21
817.244
815.462
815.045
815.108
815.655
816.689
814.602
814.176
814.23
814.771
815.803
813.439
812.999
813.04
813.571
814.599
812.037
811.574
811.593
812.108
813.13
816.311
815.901
815.97
816.521
817.555
816.107
815.694
815.76
816.309
817.342
815.593
815.174
815.234
815.779
816.811
814.786
814.357
814.409
814.947
815.977
813.723
813.28
813.318
813.846
814.872
812.473
812.008
812.024
812.536
813.556
816.78
816.373
816.444
816.997
818.031
817.624
817.218
817.29
817.842
818.874
816.537
816.127
816.196
816.747
817.78
817.346
816.937
817.007
817.556
818.588
815.93
815.515
815.579
816.126
817.159
816.658
816.244
816.308
816.854
817.885
814.953
814.528
814.583
815.124
816.155
815.531
815.106
815.16
815.7
816.729
813.642
813.202
813.243
813.773
814.801
814.087
813.645
813.682
814.21
815.235
812.117
811.654
811.673
812.187
813.208
812.597
812.13
812.144
812.653
813.671
810.528
810.032
810.018
810.508
811.518
809.092
808.548
808.487
808.94
809.934
807.845
807.234
807.108
807.512
808.48
806.794
806.095
805.887
806.227
807.163
805.977
805.189
804.905
805.188
806.092
805.38
804.541
804.218
804.472
805.359
811.136
810.641
810.627
811.116
812.125
809.833
809.297
809.242
809.7
810.695
808.654
808.066
807.961
808.38
809.356
807.652
807.005
806.845
807.222
808.176
806.866
806.166
805.958
806.3
807.236
806.317
805.588
805.356
805.68
806.607
817.137
816.696
815.931
814.849
813.466
811.846
817.232
816.804
816.069
815.048
813.783
812.352
817.693
818.528
817.214
818.003
816.373
817.068
815.16
815.69
813.618
814.005
811.84
812.219
810.148
808.611
807.405
806.631
806.357
806.483
810.884
809.539
808.451
807.713
807.363
807.367
816.103
815.695
815.766
816.319
817.355
815.661
815.251
815.321
815.873
816.909
814.892
814.478
814.545
815.095
816.132
813.802
813.381
813.442
813.989
815.026
812.408
811.976
812.028
812.568
813.604
810.771
810.322
810.358
810.887
811.92
816.198
815.788
815.858
816.41
817.445
815.767
815.356
815.425
815.976
817.011
815.028
814.612
814.677
815.226
816.262
813.999
813.576
813.635
814.18
815.215
812.723
812.288
812.336
812.874
813.907
811.275
810.823
810.855
811.381
812.41
816.662
816.255
816.327
816.88
817.915
817.5
817.094
817.166
817.719
818.751
816.181
815.772
815.843
816.396
817.431
816.972
816.564
816.636
817.187
818.221
815.335
814.922
814.99
815.541
816.577
816.032
815.62
815.688
816.238
817.272
814.115
813.695
813.757
814.305
815.341
814.646
814.226
814.288
814.834
815.869
812.56
812.13
812.181
812.723
813.758
812.948
812.516
812.566
813.106
814.14
810.766
810.319
810.355
810.886
811.919
811.145
810.696
810.731
811.261
812.292
809.049
808.574
808.584
809.095
810.121
807.475
806.961
806.934
807.417
808.429
806.217
805.645
805.562
806.003
806.994
805.361
804.707
804.546
804.927
805.887
804.981
804.23
803.985
804.301
805.226
805.022
804.198
803.89
804.157
805.052
809.783
809.306
809.313
809.821
810.844
808.406
807.894
807.866
808.348
809.358
807.275
806.715
806.641
807.088
808.081
806.482
805.864
805.735
806.139
807.11
806.075
805.397
805.213
805.575
806.524
806.036
805.316
805.093
805.425
806.357
806.522
806.233
808.408
810.141
810.262
810.659
809.066
805.486
805.99
805.579
807.115
806.744
806.563
807.584
807.827
808.462
805.34
805.332
806.51
806.61
805.894
806.08
806.998
807.226
808.807
808.793
807.509
807.484
805.893
805.779
805.253
805.623
805.766
805.305
806.877
808.252
806.576
804.165
802.976
802.47
802.533
803.19
804.498
803.503
803.063
803.222
804.051
807.279
806.774
806.754
807.244
808.261
809.046
808.576
808.591
809.107
810.135
809.16
808.681
808.687
809.194
810.217
809.569
809.103
809.122
809.64
810.668
807.952
807.462
807.457
807.958
808.979
803.414
802.334
801.88
801.992
802.65
803.981
802.947
802.54
802.698
803.42
804.074
803.224
802.894
803.146
804.034
805.327
804.406
804.08
804.312
805.153
805.483
804.838
804.687
805.077
806.042
805.188
804.444
804.206
804.53
805.458
806.379
805.789
805.686
806.112
807.096
806.597
805.978
805.849
806.254
807.226
807.278
806.707
806.622
807.06
808.049
803.307
802.254
801.82
801.946
802.632
803.909
803.122
802.845
803.136
804.046
805.274
804.653
804.523
804.928
805.902
805.401
804.808
804.705
805.131
806.116
804.611
803.946
803.776
804.151
805.109
804.836
804.208
804.071
804.472
805.444
805.813
805.247
805.17
805.615
806.61
806.06
805.514
805.454
805.913
806.915
807.663
807.137
807.096
807.567
808.574
807.665
807.159
807.138
807.626
808.64
806.329
805.765
805.688
806.134
807.128
806.32
805.775
805.717
806.177
807.179
803.69
802.577
802.107
802.202
802.882
804.197
803.303
802.943
803.166
804.036
803.52
802.577
802.181
802.357
803.133
804.24
803.486
803.235
803.547
804.469
804.473
803.798
803.618
803.985
804.939
803.867
803.067
802.774
803.051
803.954
805.692
805.124
805.045
805.49
806.485
807.117
806.604
806.577
807.061
808.074
805.371
804.782
804.683
805.112
806.099
807.107
806.153
805.781
805.953
806.618
807.897
807.095
807.177
805.278
805.244
807.259
807.406
805.328
805.402
809.042
811.071
809.057
810.886
809.242
809.137
810.551
807.05
807.141
805.211
805.167
807.23
807.375
805.275
805.378
809.16
811.31
809.167
811.067
809.339
809.18
810.704
807.084
807.182
805.198
805.143
807.275
807.425
805.278
805.383
809.269
811.869
809.276
811.548
809.444
809.272
811.105
807.444
807.538
805.513
805.455
807.638
807.811
805.593
805.713
809.771
812.514
809.753
812.168
809.89
809.688
811.636
808.072
808.159
806.143
806.087
808.252
808.457
806.219
806.333
810.411
812.972
810.378
812.694
810.482
810.323
812.174
809.19
809.268
807.296
807.243
809.336
809.502
807.365
807.461
811.401
813.768
811.347
813.505
811.428
811.259
812.979
802.334
802.321
803.647
803.644
802.346
802.363
803.67
803.704
801.37
800.631
801.415
800.745
801.425
801.544
800.965
802.249
802.251
803.571
803.556
802.299
802.343
803.614
803.656
801.245
800.633
801.315
800.771
801.375
801.534
801.002
802.213
802.235
803.545
803.515
802.311
802.38
803.61
803.68
801.312
800.89
801.399
801.013
801.501
801.665
801.226
802.527
802.561
803.852
803.814
802.654
802.751
803.927
803.995
801.708
801.469
801.808
801.582
801.949
802.143
801.783
803.19
803.23
804.497
804.457
803.346
803.483
804.57
804.646
802.448
802.316
802.556
802.405
802.715
802.927
802.572
804.401
804.441
805.678
805.639
804.557
804.672
805.75
805.819
803.673
803.417
803.775
803.513
803.905
804.085
803.683
817.523
817.207
816.579
816.062
815.198
814.678
813.248
812.831
813.598
813.11
815.127
814.632
816.228
815.756
817.105
816.765
814.807
814.146
813.918
813.006
812.446
811.596
811.637
810.56
818.742
820.748
818.398
820.268
817.868
819.795
817.304
819.119
815.952
816.983
815.007
816.309
818.646
817.537
812.805
811.171
811.927
810.713
810.665
809.299
809.617
808.582
814.827
813.118
813.848
812.559
816.426
814.768
823.052
824.401
822.104
823.5
822.089
823.787
820.96
822.513
820.718
823.022
819.009
821.134
817.697
819.793
816.218
818.345
814.346
814.058
812.928
812.798
811.222
810.844
810.11
809.729
815.638
816.074
817.322
817.425
811.731
811.752
810.649
810.883
809.103
808.789
808.156
807.984
814.265
814.955
813.053
814.052
818.291
820.861
819.322
822.229
820.124
822.77
820.745
823.774
816.786
819.276
818.155
820.999
815.464
817.911
817.239
820.035
826.299
829.294
826.78
829.76
825.389
828.162
826.289
829.127
823.9
826.018
825.486
827.816
816.372
812.666
819.73
822.263
824.989
813.16
817.075
821.068
823.779
826.744
812.25
815.74
819.123
822.324
825.445
832.06
833.372
833.602
834.775
830.62
832.13
832.64
833.908
828.196
829.89
831.032
832.547
813.974
815.309
818.255
820.1
822.195
824.122
825.35
827.268
829.541
831.483
812.848
813.924
816.757
818.694
820.431
822.652
824.09
826.501
828.702
831.259
815.02
817.208
813.448
815.387
811.185
811.765
809.789
810.085
817.334
819.941
818.872
821.639
812.111
814.06
811.256
813.114
808.664
808.94
807.86
808.047
815.93
818.591
815.064
817.666
821.758
824.943
827.24
831.13
822.993
826.331
828.055
831.867
820.616
823.703
826.456
830.285
819.535
822.653
825.316
828.942
833.692
834.188
835.23
833.983
834.118
835.06
832.758
833.402
834.512
833.288
833.482
834.502
830.911
831.791
833.041
832.266
832.613
833.762
816.951
818.839
820.862
822.053
823.689
825.466
825.927
827.318
828.872
828.723
829.871
831.353
831.465
831.98
833.332
815.438
817.547
819.831
821.257
823.463
825.723
825.248
827.176
829.188
828.477
829.883
831.646
831.436
832.127
833.688
808.245
807.565
807.648
806.775
810.142
809.296
809.452
808.409
807.802
806.336
807.649
806.281
807.391
806.079
807.1
805.866
806.151
806.722
805.801
806.467
805.844
805.375
806.099
805.311
807.579
806.694
805.77
805.033
805.254
804.544
805.105
804.381
804.858
803.549
805.113
803.873
804.677
803.328
804.742
803.486
804.534
803.054
804.224
802.861
803.992
802.779
803.372
802.356
806.633
806.027
805.866
805.181
808.626
808.095
807.716
807.137
804.566
803.752
805.233
804.492
805.111
804.447
804.357
803.798
806.852
806.31
806.013
805.582
803.907
803.106
803.221
802.532
803.471
802.281
802.8
802.071
804.006
802.742
803.446
802.612
802.936
801.873
802.233
801.603
802.343
801.435
801.734
801.197
804.858
805.44
803.662
804.282
804.849
805.471
803.577
804.225
804.849
805.411
803.449
804.032
807.173
809.525
805.692
804.533
803.286
809.975
807.644
806.249
805.111
803.802
809.101
806.815
805.177
804.068
803.148
806.481
807.931
805.34
806.751
806.412
807.791
805.179
806.532
806.229
807.529
804.865
806.128
810.558
811.655
808.091
809.209
806.672
807.825
805.595
806.773
804.367
805.559
809.454
810.081
807.112
807.746
805.522
806.292
804.494
805.448
803.693
804.893
805.861
806.045
804.992
804.924
807.994
808.107
806.944
806.73
803.728
803.981
804.473
804.935
804.326
804.061
803.682
803.348
806.128
805.725
805.401
804.915
803.132
803.212
802.557
802.576
802.935
803.524
802.54
803.5
803.617
804.387
803.073
804.169
802.378
802.811
802.079
802.914
801.91
802.279
801.671
802.395
809.911
811.876
813.726
809.188
811.41
813.267
809.644
811.632
813.524
808.872
811.106
813.043
809.269
811.218
813.14
808.36
810.7
812.767
813.15
815.031
817.071
810.743
812.696
814.782
809.39
811.431
813.554
808.436
810.472
812.524
807.801
810.263
812.516
811.257
813.288
815.597
808.988
811.062
813.382
807.725
809.928
812.318
807.145
809.469
811.881
807.242
809.823
812.3
802.962
803.75
805.945
810.042
803.337
804.185
806.456
810.59
802.797
803.619
805.82
809.954
803.032
803.941
806.233
810.378
802.589
803.46
805.567
809.578
802.503
803.485
805.738
809.835
802.572
803.67
806.085
810.286
802.343
803.575
806.089
810.32
802.103
803.15
805.349
809.408
802.173
803.299
805.308
808.958
802.448
803.383
805.368
809.134
802.561
803.569
805.433
808.87
801.823
802.982
805.356
809.566
801.836
803.065
805.194
808.93
801.537
802.806
805.264
809.452
801.542
802.862
805.055
808.775
803.019
803.716
805.708
809.564
803.528
804.109
805.804
809.171
802.973
803.694
805.658
809.485
803.508
804.119
805.803
809.135
802.911
803.679
805.578
809.295
803.402
804.081
805.769
809.061
802.895
803.726
805.528
809.025
803.303
804.055
805.723
808.922
802.947
803.846
805.566
808.767
804.319
804.797
806.319
808.715
805.211
805.623
807.179
809.421
804.225
804.748
806.281
808.669
805.113
805.579
807.155
809.405
804.048
804.654
806.225
808.63
804.936
805.493
807.109
809.365
803.79
804.512
806.118
808.535
804.693
805.369
807.035
809.309
803.455
804.325
805.989
808.431
804.408
805.225
806.955
809.254
802.811
803.962
805.815
808.35
803.67
804.802
806.69
809.074
803.128
804.145
805.907
808.397
804.038
805.015
806.824
809.161
802.526
803.792
805.73
808.311
803.331
804.601
806.569
808.978
802.253
803.617
805.612
808.215
803.021
804.407
806.441
808.877
816.322
821.408
825.76
829.317
832.07
816.645
821.676
826.017
829.57
832.321
816.282
821.388
825.747
829.307
832.061
816.578
821.631
825.98
829.537
832.29
816.212
821.357
825.727
829.291
832.046
816.351
821.434
825.796
829.359
832.115
816.479
821.568
825.936
829.503
832.26
816.405
821.514
825.895
829.47
832.231
816.168
821.332
825.711
829.28
832.037
816.429
821.709
826.105
829.675
832.431
816.226
821.424
825.804
829.37
832.126
816.51
821.796
826.188
829.755
832.509
816.164
821.333
825.719
829.291
832.051
816.458
821.751
826.153
829.726
832.483
816.088
821.282
825.681
829.261
832.023
816.441
821.757
826.17
829.75
832.509
816.353
821.524
825.888
829.445
832.197
816.726
821.975
826.345
829.899
832.648
816.347
821.536
825.906
829.465
832.217
816.722
821.982
826.355
829.911
832.66
816.354
821.575
825.953
829.515
832.268
816.726
822.003
826.382
829.94
832.69
816.466
821.739
826.126
829.69
832.444
816.79
822.082
826.466
830.027
832.778
816.692
821.983
826.372
829.935
832.688
840.072
840.936
839.673
840.561
838.984
839.966
838.113
839.259
837.254
838.575
835.92
837.454
836.606
838.103
835.236
836.719
834.519
835.87
849.75
860.407
869.412
876.452
881.282
849.584
860.316
869.424
876.511
881.422
849.571
860.311
869.35
876.406
881.242
849.43
860.253
869.369
876.497
881.397
849.23
860.12
869.224
876.311
881.159
849.1
860.068
869.247
876.406
881.318
848.771
859.845
869.037
876.17
881.038
848.68
859.818
869.078
876.278
881.209
848.238
859.497
868.793
875.983
880.877
848.228
859.522
868.87
876.118
881.069
847.087
858.637
868.142
875.461
880.409
847.197