/*--------------------------------*- C++ -*----------------------------------*\
  =========                 |
  \\      /  F ield         | OpenFOAM: The Open Source CFD Toolbox
   \\    /   O peration     | Website:  https://openfoam.org
    \\  /    A nd           | Version:  13
     \\/     M anipulation  |
\*---------------------------------------------------------------------------*/
FoamFile
{
    format      ascii;
    class       volScalarField;
    location    "429.831886";
    object      T;
}
// * * * * * * * * * * * * * * * * * * * * * * * * * * * * * * * * * * * * * //

dimensions      [0 0 0 1 0 0 0];

internalField   nonuniform List<scalar> 
5712
(
304.838
304.908
305.017
305.124
305.24
305.356
305.496
305.6
305.377
305.497
305.173
305.287
305.004
305.104
304.862
304.938
305.371
305.538
305.568
305.797
305.696
305.903
305.892
306.161
304.692
304.434
304.761
304.512
304.87
304.617
304.981
304.731
305.285
305.077
305.49
305.223
304.842
305.045
305.799
306.162
306.039
306.317
306.116
306.445
306.393
306.649
305.507
305.867
305.73
306.011
305.253
305.595
304.135
303.925
304.253
304.026
304.315
304.05
304.466
304.21
304.58
304.227
304.853
304.501
305.088
304.728
305.387
305.007
305.561
305.646
305.869
305.93
306
306.088
306.277
306.363
305.466
305.47
305.139
305.188
306.139
306.171
306.392
306.376
306.529
306.597
306.768
306.798
305.749
305.71
306.014
305.911
305.063
304.647
305.008
304.573
304.742
304.342
304.735
304.304
305.347
304.921
305.24
304.799
305.617
305.179
305.434
304.987
303.683
303.286
303.612
303.236
303.841
303.453
303.71
303.341
304.097
303.777
303.875
303.56
305.167
305.651
304.72
304.391
304.015
305.523
305.013
304.471
304.132
303.758
305.751
305.295
304.859
304.446
304.029
302.925
302.691
302.798
302.598
303.109
302.84
302.926
302.71
303.443
303.133
303.158
302.901
305.323
304.992
304.777
304.383
304.267
303.885
303.883
303.525
303.41
303.088
305.593
305.31
305.086
304.69
304.623
304.204
304.172
303.749
303.622
303.215
305.46
305.029
305.785
305.389
305.974
305.74
306.289
306.092
305.262
304.807
304.956
304.477
306.064
305.667
306.263
305.879
306.548
306.353
306.746
306.566
305.539
305.075
305.731
305.275
304.681
304.197
303.996
303.476
304.43
303.92
303.813
303.297
304.907
304.436
304.163
303.652
305.119
304.637
304.367
303.875
302.515
302.327
302.115
302.514
302.354
302.15
302.63
302.419
302.192
302.606
302.432
302.21
302.865
302.616
302.361
302.749
302.539
302.289
304.594
304.171
303.75
303.947
303.57
303.204
303.487
303.145
302.821
303.179
302.869
302.563
302.875
302.617
302.324
304.917
304.419
303.925
304.147
303.654
303.197
303.657
303.205
302.795
303.275
302.883
302.513
302.905
302.593
302.257
306.268
306.447
306.436
306.675
306.01
306.221
306.194
306.465
306.158
306.391
306.207
306.418
306.29
306.492
306.374
306.556
306.652
306.486
306.784
306.58
306.606
306.745
306.869
307.095
306.685
306.922
306.776
307.012
306.95
307.161
306.839
307.066
306.642
306.866
306.6
306.787
306.722
306.939
306.724
306.903
306.82
307.04
306.936
307.11
307.027
307.151
307.218
307.288
306.633
306.77
306.87
307.012
306.363
306.475
306.618
306.734
307.033
307.203
306.815
306.983
307.091
307.22
307.307
307.401
306.854
306.956
307.081
307.149
307.236
307.393
307.441
307.56
307.162
307.286
307.308
307.34
306.981
307.14
307.113
307.177
307.334
307.419
307.478
307.482
307.519
307.56
307.628
307.606
306.549
306.357
306.81
306.627
306.587
306.384
306.846
306.657
306.648
306.466
306.906
306.736
306.411
306.078
306.614
306.795
306.975
305.952
306.274
306.437
306.615
306.825
306.184
306.518
306.761
306.919
307.017
306.077
305.719
306.346
305.994
306.125
305.777
306.403
306.064
306.229
305.891
306.512
306.193
305.78
305.478
306.124
305.808
306.306
305.987
306.467
306.144
306.673
306.364
306.06
305.842
306.399
306.176
306.636
306.389
306.779
306.496
306.866
306.546
306.735
306.575
306.979
306.859
306.426
306.273
306.699
306.594
307.144
306.972
306.927
306.72
307.174
307.084
307.352
307.275
306.917
306.838
307.107
307.046
307.325
307.181
307.489
307.356
307.215
306.984
307.19
306.902
307.021
306.756
307.039
306.727
307.379
307.179
307.322
307.061
307.523
307.332
307.449
307.214
305.253
304.806
304.398
305.416
304.906
304.492
305.333
304.876
304.456
305.506
304.987
304.552
305.465
305.009
304.575
305.652
305.102
304.632
305.096
304.658
304.212
305.413
304.954
304.488
305.585
305.101
304.622
305.719
305.227
304.751
305.811
305.223
304.705
305.497
304.992
304.466
305.815
305.291
304.748
305.99
305.435
304.871
306.043
305.463
304.894
305.957
305.332
304.758
306.9
306.633
306.099
305.245
306.799
306.519
305.977
305.128
306.949
306.669
306.129
305.264
306.888
306.587
306.033
305.174
307.015
306.715
306.189
305.343
307.049
306.72
306.162
305.296
307.038
306.677
306.085
305.208
307.115
306.714
306.097
305.214
307.171
306.813
306.255
305.386
307.151
306.767
306.245
305.454
307.062
306.737
306.232
305.428
307.033
306.683
306.201
305.459
307.262
306.872
306.269
305.365
307.255
306.84
306.284
305.468
307.356
306.933
306.306
305.401
307.348
306.905
306.329
305.509
306.876
306.632
306.139
305.327
306.727
306.512
306.087
305.373
306.892
306.638
306.15
305.342
306.736
306.511
306.088
305.38
306.916
306.644
306.167
305.38
306.772
306.525
306.098
305.396
306.927
306.632
306.172
305.426
306.807
306.535
306.109
305.424
306.916
306.599
306.156
305.464
306.504
306.317
305.931
305.391
306.259
306.09
305.697
305.18
306.535
306.333
305.943
305.403
306.29
306.105
305.706
305.186
306.59
306.362
305.96
305.415
306.344
306.131
305.72
305.197
306.669
306.405
305.991
305.441
306.417
306.168
305.742
305.213
306.77
306.461
306.028
305.467
306.501
306.211
305.766
305.228
306.962
306.573
306.086
305.497
306.712
306.335
305.844
305.28
306.867
306.517
306.056
305.48
306.607
306.272
305.804
305.254
307.047
306.627
306.116
305.514
306.81
306.396
305.882
305.31
307.132
306.682
306.154
305.545
306.903
306.456
305.922
305.341
304.093
303.226
302.534
302.005
301.625
304.03
303.179
302.494
301.971
301.594
304.103
303.231
302.536
302.007
301.627
304.044
303.188
302.5
301.975
301.598
304.12
303.238
302.541
302.011
301.629
304.094
303.226
302.531
302.002
301.621
304.073
303.205
302.511
301.983
301.604
304.095
303.219
302.521
301.99
301.609
304.134
303.246
302.546
302.014
301.632
304.081
303.18
302.485
301.959
301.582
304.119
303.228
302.53
302
301.62
304.061
303.163
302.471
301.947
301.572
304.139
303.249
302.546
302.013
301.631
304.078
303.175
302.479
301.953
301.576
304.161
303.263
302.555
302.02
301.636
304.087
303.178
302.479
301.952
301.574
304.084
303.204
302.513
301.987
301.609
304.005
303.124
302.441
301.923
301.551
304.087
303.204
302.511
301.985
301.607
304.008
303.124
302.441
301.923
301.551
304.088
303.199
302.505
301.979
301.601
304.009
303.122
302.438
301.919
301.547
304.067
303.171
302.479
301.955
301.579
303.999
303.11
302.426
301.908
301.537
304.022
303.129
302.442
301.922
301.549
302.184
302.085
302.245
302.145
302.361
302.247
302.517
302.375
302.687
302.511
302.986
302.792
302.841
302.646
303.12
302.937
303.25
303.087
301.376
300.585
299.987
299.564
299.298
301.379
300.586
299.983
299.559
299.29
301.405
300.599
299.994
299.568
299.301
301.407
300.599
299.99
299.562
299.293
301.462
300.628
300.011
299.579
299.308
301.463
300.627
300.006
299.572
299.3
301.542
300.671
300.035
299.594
299.319
301.536
300.665
300.028
299.585
299.309
301.639
300.725
300.066
299.613
299.333
301.617
300.711
300.055
299.602
299.322
301.846
300.853
300.147
299.666
299.373
301.815
300.831
300.13
299.651
299.359
301.743
300.788
300.105
299.638
299.352
301.712
300.766
300.088
299.624
299.338
301.945
300.918
300.19
299.695
299.395
301.924
300.902
300.176
299.683
299.383
302.041
300.983
300.233
299.725
299.418
302.033
300.975
300.225
299.717
299.408
306.861
306.687
306.39
306.589
305.965
306.022
306.068
306.147
306.046
306.147
305.796
305.904
305.599
305.72
305.775
305.883
305.821
305.901
305.797
305.859
306.489
306.389
305.019
304.604
304.534
304.467
304.829
305.684
305.28
305.537
304.876
304.372
305.236
305.218
304.79
305.054
304.934
304.822
305.963
305.746
305.356
305.382
305.575
305.603
305.409
305.268
304.802
304.841
305.116
305.16
306.311
306.211
306.104
305.995
305.789
305.895
305.391
305.009
305.434
306.932
307.122
307.165
307.075
306.852
306.752
306.93
306.97
306.864
306.598
305.276
305.388
305.385
305.264
305.022
304.842
304.943
304.935
304.817
304.588
304.772
304.873
304.868
304.753
304.528
304.7
304.799
304.791
304.676
304.452
305.078
305.186
305.182
305.063
304.828
306.136
306.377
306.477
306.439
306.272
305.743
305.998
306.105
306.073
305.895
305.891
306.09
306.163
306.092
305.861
305.298
305.538
305.631
305.588
305.392
304.76
304.994
305.084
305.044
304.86
305.534
305.685
305.718
305.62
305.383
305.545
305.724
305.783
305.704
305.476
305.093
305.259
305.311
305.233
305.017
305.334
305.47
305.491
305.387
305.152
305.219
305.363
305.394
305.299
305.071
305.09
305.219
305.237
305.134
304.906
306.399
306.607
306.682
306.624
306.432
306.08
306.256
306.307
306.216
305.971
305.649
305.793
305.817
305.711
305.467
305.669
305.804
305.82
305.707
305.459
305.88
306.032
306.06
305.954
305.706
305.899
306.041
306.059
305.944
305.691
305.687
305.814
305.819
305.698
305.447
305.541
305.665
305.67
305.551
305.304
305.057
305.173
305.178
305.066
304.834
305.094
305.206
305.206
305.09
304.855
305.39
305.519
305.532
305.421
305.181
305.431
305.555
305.562
305.446
305.203
306.742
306.939
306.994
306.914
306.706
306.558
306.73
306.769
306.663
306.401
306.487
306.671
306.728
306.646
306.42
306.317
306.474
306.503
306.391
306.129
306.096
306.244
306.266
306.152
305.894
306.228
306.401
306.447
306.351
306.1
305.67
305.798
305.806
305.687
305.436
305.269
305.383
305.383
305.264
305.024
305.72
305.854
305.866
305.75
305.5
307.184
306.97
307.174
306.938
307.464
307.216
307.471
307.25
307.162
307.144
306.944
307.002
307.458
307.441
307.239
307.307
306.871
306.55
306.674
306.367
306.872
306.585
306.647
306.367
306.658
306.854
306.751
306.884
306.634
306.435
306.687
306.474
306.807
306.581
306.967
306.746
307.114
306.899
306.417
306.196
306.548
306.303
306.191
305.943
306.234
305.931
306.066
305.777
306.272
305.923
306.067
305.755
306.352
305.905
306.199
305.79
305.976
305.568
305.707
305.306
307.038
306.939
306.94
306.838
307.391
307.34
307.292
307.246
306.589
306.375
306.686
306.478
306.79
306.712
306.605
306.557
307.146
307.124
306.969
306.975
306.436
306.249
306.241
306.091
306.202
305.726
305.887
305.405
306.287
305.786
305.98
305.478
306.051
305.594
305.766
305.299
305.851
305.406
305.61
305.155
306.287
306.208
305.964
305.831
306.324
306.257
305.94
305.809
306.378
306.344
305.891
305.78
307.065
307.426
306.706
306.302
305.757
307.439
307.099
306.744
306.326
305.707
307.389
306.997
306.54
306.038
305.507
306.024
305.879
305.39
305.159
306.116
305.971
305.418
305.187
306.251
306.121
305.45
305.217
307.413
307.296
307.054
306.931
306.67
306.554
306.202
306.074
305.38
305.138
307.363
307.224
306.935
306.731
306.447
306.219
305.888
305.644
305.161
304.888
306.796
306.48
306.69
306.369
307.282
307.146
307.18
307.048
306.155
305.765
306.265
305.89
306.589
306.234
306.436
306.061
307.064
306.912
306.916
306.748
306.058
305.631
305.902
305.454
305.526
305.086
304.762
304.272
305.665
305.23
304.926
304.457
305.407
304.957
304.614
304.115
305.289
304.81
304.511
304.021
305.741
305.565
305.136
305.022
305.837
305.644
305.152
305.038
305.967
305.716
305.161
305.019
307.074
306.709
306.705
306.365
306.354
306.053
305.892
305.603
305.097
304.932
306.977
306.576
306.423
306.057
305.935
305.625
305.438
305.2
304.898
304.741
307.887
307.89
307.666
307.752
307.705
307.703
307.481
307.567
307.994
308.045
307.774
307.83
307.992
308.045
307.754
307.814
307.795
307.994
307.846
307.988
308.033
307.837
307.558
307.333
307.378
307.163
307.536
307.29
307.641
307.408
307.581
307.344
308.044
307.975
307.834
307.777
308.059
307.993
307.832
307.788
308.078
308.018
307.913
307.874
307.68
307.66
307.455
307.472
307.902
307.877
307.806
307.801
307.686
307.662
307.588
307.576
307.933
307.928
308.027
307.994
307.664
307.694
307.495
307.56
307.445
307.46
307.273
307.318
307.792
307.83
307.626
307.707
307.991
307.943
307.96
307.881
308.08
308.007
308.018
307.923
307.854
307.834
307.873
307.811
307.693
307.702
307.761
307.717
308.141
308.119
308.059
308.016
308.142
308.115
308.059
308.009
308.131
308.108
308.048
308.003
307.933
307.72
308.056
308.103
308.011
307.719
307.926
308.046
308.09
307.984
307.706
307.912
308.022
308.04
307.934
307.989
307.756
307.866
307.626
308.005
307.785
307.878
307.648
308.023
307.828
307.894
307.682
307.699
307.583
307.905
307.774
308.004
307.854
308.025
307.853
307.893
307.699
307.696
307.594
307.896
307.784
307.989
307.849
307.985
307.807
307.856
307.657
307.862
307.774
307.767
307.698
307.654
307.586
307.547
307.499
307.867
307.749
307.95
307.814
307.641
307.584
307.507
307.439
307.414
307.375
307.272
307.221
307.757
307.645
307.632
307.509
307.863
307.687
307.732
307.515
307.935
307.74
307.799
307.576
307.77
307.599
307.649
307.426
307.658
307.475
307.557
307.332
307.471
307.198
307.277
306.969
307.519
307.226
307.302
306.976
307.569
307.237
307.337
306.957
307.358
306.984
307.534
307.154
307.61
307.234
307.59
307.201
307.352
306.903
307.372
306.945
307.544
307.103
307.578
307.127
307.498
307.038
307.278
306.777
307.676
307.156
306.451
305.476
307.5
306.994
306.299
305.341
307.685
307.166
306.461
305.478
307.515
307.014
306.322
305.363
307.69
307.172
306.497
305.539
307.581
307.082
306.411
305.46
307.391
306.919
306.251
305.318
307.243
306.802
306.157
305.255
307.631
307.129
306.474
305.535
307.538
307.033
306.434
305.591
307.664
307.147
306.513
305.613
307.563
307.045
306.452
305.631
307.555
307.073
306.41
305.464
307.492
307.004
306.403
305.558
307.457
307.003
306.355
305.436
307.429
306.961
306.37
305.54
307.737
307.208
306.526
305.582
307.665
307.132
306.505
305.654
307.725
307.196
306.524
305.586
307.646
307.114
306.493
305.651
307.695
307.167
306.518
305.606
307.621
307.089
306.477
305.647
307.637
307.111
306.496
305.635
307.585
307.056
306.459
305.652
307.559
307.034
306.453
305.662
307.487
306.956
306.36
305.705
307.252
306.728
306.128
305.505
307.485
306.954
306.36
305.708
307.249
306.724
306.125
305.503
307.476
306.945
306.352
305.7
307.239
306.714
306.116
305.498
307.463
306.933
306.347
305.697
307.227
306.701
306.106
305.49
307.441
306.913
306.338
305.694
307.205
306.679
306.089
305.476
307.347
306.836
306.274
305.643
307.133
306.621
306.045
305.436
307.4
306.878
306.308
305.67
307.178
306.657
306.072
305.461
307.282
306.787
306.232
305.608
307.067
306.571
306.006
305.407
307.21
306.736
306.193
305.577
306.988
306.514
305.963
305.373
304.226
303.304
302.58
302.035
301.647
304.155
303.254
302.539
301.999
301.615
304.224
303.302
302.579
302.034
301.646
304.154
303.253
302.539
302
301.616
304.227
303.301
302.579
302.034
301.647
304.186
303.28
302.564
302.022
301.636
304.137
303.243
302.534
301.997
301.614
304.119
303.234
302.53
301.995
301.613
304.216
303.295
302.575
302.032
301.645
304.153
303.223
302.51
301.975
301.594
304.216
303.285
302.564
302.022
301.635
304.148
303.213
302.501
301.966
301.585
304.196
303.282
302.567
302.026
301.64
304.128
303.204
302.496
301.964
301.584
304.181
303.274
302.563
302.024
301.639
304.104
303.188
302.485
301.955
301.577
304.223
303.285
302.561
302.017
301.631
304.146
303.205
302.49
301.954
301.573
304.217
303.28
302.557
302.014
301.628
304.143
303.202
302.487
301.952
301.572
304.205
303.266
302.545
302.004
301.619
304.132
303.192
302.48
301.946
301.566
304.171
303.231
302.515
301.978
301.596
304.107
303.172
302.463
301.932
301.554
304.117
303.184
302.474
301.942
301.564
304.176
304.044
304.155
304.02
304.109
303.97
304.034
303.9
303.916
303.803
303.615
303.477
303.753
303.631
303.491
303.339
303.372
303.217
302.688
301.402
300.507
299.911
299.557
302.712
301.412
300.506
299.908
299.548
302.671
301.391
300.5
299.907
299.553
302.691
301.398
300.499
299.901
299.544
302.637
301.37
300.487
299.898
299.547
302.657
301.377
300.486
299.893
299.538
302.583
301.337
300.466
299.884
299.537
302.608
301.348
300.468
299.881
299.529
302.506
301.29
300.437
299.865
299.522
302.544
301.31
300.444
299.865
299.517
302.32
301.175
300.362
299.814
299.484
302.345
301.189
300.367
299.814
299.48
302.415
301.236
300.402
299.841
299.504
302.453
301.257
300.411
299.842
299.501
302.228
301.112
300.32
299.786
299.463
302.239
301.118
300.321
299.783
299.458
302.135
301.048
300.277
299.755
299.44
302.136
301.046
300.273
299.75
299.433
307.144
306.978
307.209
307.386
307.884
307.661
307.886
307.637
307.704
307.451
307.707
307.483
303.202
303.255
303.385
303.595
303.882
304.237
303.198
303.248
303.373
303.57
303.833
304.15
303.095
302.946
303.154
303.011
303.297
303.17
303.53
303.432
303.847
303.775
304.226
304.142
304.633
305.032
305.402
305.738
306.008
306.199
304.5
304.855
305.192
305.491
305.732
305.895
303.383
303.455
303.442
303.343
303.16
303.438
303.511
303.498
303.398
303.214
303.574
303.649
303.636
303.535
303.346
303.791
303.87
303.858
303.753
303.557
304.09
304.174
304.162
304.053
303.847
304.459
304.551
304.54
304.426
304.209
303.379
303.451
303.438
303.339
303.157
303.432
303.505
303.492
303.392
303.208
303.562
303.637
303.624
303.523
303.334
303.766
303.845
303.833
303.728
303.533
304.039
304.123
304.112
304.004
303.8
304.369
304.46
304.45
304.338
304.124
303.273
303.343
303.33
303.233
303.054
303.119
303.187
303.174
303.08
302.906
303.334
303.405
303.392
303.294
303.113
303.187
303.256
303.243
303.148
302.972
303.483
303.557
303.544
303.444
303.258
303.351
303.423
303.411
303.313
303.132
303.725
303.803
303.79
303.686
303.493
303.623
303.699
303.687
303.585
303.395
304.054
304.138
304.126
304.018
303.813
303.98
304.063
304.051
303.944
303.743
304.448
304.54
304.53
304.416
304.199
304.361
304.452
304.442
304.331
304.117
304.873
304.974
304.966
304.848
304.618
305.289
305.401
305.398
305.276
305.035
305.679
305.803
305.807
305.685
305.433
306.035
306.173
306.186
306.065
305.805
306.324
306.475
306.495
306.376
306.111
306.528
306.686
306.709
306.589
306.319
304.734
304.833
304.825
304.709
304.484
305.105
305.213
305.21
305.09
304.854
305.459
305.577
305.578
305.457
305.211
305.774
305.903
305.909
305.787
305.533
306.028
306.165
306.175
306.053
305.793
306.2
306.341
306.354
306.23
305.965
303.226
303.329
303.511
303.773
304.116
304.531
303.222
303.322
303.497
303.744
304.059
304.425
303.12
302.972
303.23
303.089
303.426
303.302
303.715
303.622
304.091
304.026
304.538
304.469
304.985
305.426
305.809
306.103
306.266
306.293
304.817
305.196
305.528
305.781
305.93
305.966
303.409
303.481
303.467
303.368
303.184
303.515
303.589
303.575
303.474
303.287
303.704
303.78
303.766
303.661
303.468
303.975
304.056
304.042
303.932
303.73
304.331
304.417
304.403
304.288
304.073
304.761
304.854
304.841
304.719
304.491
303.405
303.477
303.463
303.364
303.181
303.508
303.582
303.568
303.467
303.28
303.689
303.766
303.752
303.648
303.455
303.946
304.026
304.012
303.904
303.702
304.272
304.357
304.344
304.23
304.018
304.652
304.744
304.731
304.612
304.387
303.299
303.37
303.356
303.259
303.079
303.146
303.214
303.201
303.106
302.932
303.413
303.485
303.471
303.372
303.188
303.267
303.337
303.324
303.227
303.048
303.616
303.691
303.677
303.574
303.384
303.488
303.561
303.548
303.447
303.261
303.915
303.994
303.98
303.872
303.672
303.819
303.898
303.884
303.777
303.58
304.305
304.39
304.376
304.261
304.048
304.238
304.323
304.309
304.195
303.984
304.768
304.861
304.847
304.725
304.497
304.697
304.789
304.775
304.655
304.428
305.234
305.336
305.323
305.195
304.951
305.693
305.804
305.794
305.661
305.403
306.094
306.216
306.211
306.075
305.806
306.406
306.541
306.544
306.409
306.134
306.586
306.733
306.745
306.615
306.338
306.623
306.779
306.799
306.675
306.401
305.059
305.159
305.148
305.023
304.785
305.455
305.563
305.554
305.425
305.175
305.802
305.92
305.915
305.783
305.524
306.069
306.196
306.197
306.065
305.799
306.229
306.365
306.371
306.241
305.973
306.272
306.412
306.423
306.297
306.029
306.652
306.517
305.47
304.984
304.989
304.864
305.291
306.979
306.837
306.684
306.421
306.133
306.316
305.841
305.821
305.59
306.945
306.649
306.151
306.075
306.355
306.245
305.915
305.843
305.429
305.394
305.814
305.784
306.788
306.562
306.816
306.483
306.372
306.647
305.955
305.533
306.069
307.095
307.274
307.309
307.208
306.974
306.88
307.054
307.089
306.976
306.704
305.737
305.848
305.837
305.702
305.442
305.232
305.333
305.32
305.191
304.947
305.238
305.339
305.327
305.198
304.954
305.107
305.206
305.193
305.066
304.826
305.55
305.657
305.645
305.512
305.258
307.388
307.544
307.559
307.438
307.193
307.232
307.376
307.381
307.252
306.995
307.02
307.172
307.183
307.047
306.758
306.781
306.909
306.905
306.77
306.498
306.431
306.56
306.557
306.417
306.138
306.629
306.766
306.768
306.629
306.347
306.125
306.247
306.24
306.101
305.831
306.107
306.229
306.224
306.087
305.818
305.864
305.98
305.973
305.838
305.575
307.353
307.514
307.533
307.413
307.166
306.98
307.13
307.139
307.003
306.713
306.449
306.578
306.574
306.433
306.153
306.369
306.495
306.49
306.349
306.071
306.666
306.802
306.802
306.661
306.376
306.55
306.682
306.68
306.54
306.257
306.202
306.325
306.319
306.18
305.907
306.126
306.245
306.237
306.097
305.826
305.695
305.806
305.796
305.662
305.404
305.659
305.768
305.756
305.622
305.365
306.097
306.216
306.208
306.069
305.799
306.065
306.183
306.174
306.034
305.765
307.217
307.386
307.415
307.306
307.064
306.911
307.074
307.098
306.976
306.695
307.194
307.351
307.373
307.251
306.987
306.809
306.958
306.97
306.836
306.552
306.685
306.824
306.828
306.689
306.405
306.981
307.133
307.147
307.014
306.725
306.245
306.368
306.361
306.221
305.947
305.803
305.915
305.904
305.768
305.506
306.364
306.49
306.485
306.344
306.066
305.877
306.147
306.282
306.285
306.159
305.869
307.266
307.249
307.548
307.559
307.225
307.184
307.526
307.487
306.942
306.598
306.939
306.637
306.905
306.914
306.694
307.292
307.27
307.573
307.589
307.24
307.192
307.542
307.492
306.948
306.599
306.943
306.638
306.904
306.915
306.689
307.304
307.276
307.584
307.606
307.237
307.179
307.542
307.481
306.952
306.528
306.94
306.571
306.891
306.896
306.625
307.22
307.187
307.495
307.523
307.137
307.063
307.445
307.369
306.848
306.391
306.834
306.432
306.777
306.776
306.492
307.04
307.005
307.305
307.335
306.948
306.858
307.25
307.168
306.668
306.233
306.652
306.262
306.593
306.575
306.317
306.707
306.672
306.956
306.987
306.618
306.536
306.901
306.82
306.367
305.986
306.354
306.009
306.3
306.285
306.061
307.972
307.969
307.79
307.797
307.953
307.93
307.772
307.74
308.078
308.14
308.069
308.129
308.057
308.032
308.1
308.002
307.992
307.816
307.827
307.968
307.935
307.788
307.748
308.113
308.151
308.096
308.133
308.07
308.034
308.096
308.017
308
307.827
307.846
307.963
307.919
307.788
307.733
308.106
308.085
308.082
308.067
308.04
307.998
308.031
307.924
307.901
307.734
307.759
307.854
307.795
307.687
307.621
307.989
307.915
307.959
307.897
307.902
307.85
307.862
307.722
307.695
307.537
307.564
307.639
307.564
307.485
307.411
307.764
307.666
307.731
307.651
307.668
307.606
307.622
307.35
307.323
307.175
307.203
307.267
307.199
307.122
307.049
307.392
307.334
307.361
307.315
307.306
307.253
307.286
304.826
304.892
305.014
305.122
305.238
305.354
305.494
305.598
305.376
305.495
305.171
305.286
305.001
305.102
304.848
304.92
305.37
305.538
305.566
305.796
305.695
305.902
305.891
306.161
304.683
304.426
304.748
304.501
304.869
304.616
304.979
304.73
305.284
305.076
305.489
305.222
304.841
305.044
305.799
306.161
306.038
306.316
306.115
306.444
306.393
306.648
305.507
305.866
305.73
306.011
305.252
305.595
304.129
303.919
304.243
304.017
304.315
304.05
304.466
304.21
304.579
304.227
304.852
304.5
305.088
304.727
305.387
305.007
305.56
305.645
305.868
305.93
306
306.087
306.277
306.363
305.466
305.469
305.139
305.187
306.139
306.171
306.392
306.376
306.529
306.597
306.768
306.798
305.749
305.709
306.014
305.911
305.063
304.647
305.007
304.573
304.742
304.342
304.735
304.304
305.347
304.921
305.24
304.798
305.616
305.179
305.434
304.987
303.676
303.28
303.607
303.231
303.841
303.452
303.71
303.341
304.096
303.776
303.874
303.56
305.167
305.65
304.719
304.391
304.015
305.522
305.013
304.471
304.132
303.758
305.751
305.295
304.859
304.446
304.028
302.919
302.686
302.794
302.595
303.109
302.84
302.926
302.71
303.443
303.132
303.158
302.9
305.322
304.991
304.777
304.383
304.266
303.885
303.883
303.525
303.41
303.088
305.592
305.31
305.086
304.69
304.622
304.203
304.172
303.749
303.621
303.215
305.46
305.028
305.785
305.389
305.974
305.739
306.289
306.092
305.262
304.806
304.955
304.477
306.064
305.667
306.262
305.878
306.548
306.353
306.745
306.566
305.538
305.074
305.731
305.275
304.681
304.196
303.996
303.476
304.43
303.919
303.813
303.297
304.907
304.436
304.163
303.652
305.119
304.637
304.366
303.875
302.51
302.323
302.111
302.511
302.352
302.148
302.63
302.419
302.192
302.606
302.432
302.21
302.865
302.615
302.361
302.749
302.539
302.289
304.594
304.171
303.75
303.947
303.57
303.204
303.487
303.145
302.821
303.179
302.869
302.563
302.875
302.617
302.324
304.917
304.418
303.925
304.146
303.654
303.197
303.657
303.205
302.795
303.274
302.882
302.513
302.905
302.593
302.257
306.267
306.447
306.436
306.674
306.009
306.22
306.193
306.464
306.15
306.384
306.197
306.409
306.29
306.492
306.374
306.556
306.651
306.486
306.784
306.58
306.605
306.744
306.869
307.095
306.684
306.921
306.775
307.012
306.95
307.16
306.839
307.066
306.637
306.862
306.591
306.78
306.722
306.938
306.724
306.903
306.82
307.039
306.936
307.11
307.026
307.151
307.218
307.288
306.633
306.769
306.87
307.012
306.362
306.475
306.617
306.734
307.033
307.203
306.815
306.983
307.091
307.22
307.307
307.401
306.854
306.956
307.08
307.148
307.236
307.393
307.441
307.56
307.162
307.286
307.308
307.34
306.981
307.14
307.113
307.177
307.334
307.418
307.478
307.482
307.519
307.56
307.628
307.606
306.546
306.354
306.808
306.626
306.586
306.384
306.846
306.656
306.648
306.466
306.906
306.736
306.411
306.077
306.614
306.794
306.975
305.952
306.274
306.437
306.615
306.825
306.184
306.517
306.761
306.919
307.016
306.075
305.717
306.345
305.993
306.125
305.777
306.403
306.064
306.229
305.891
306.512
306.192
305.78
305.478
306.124
305.808
306.306
305.987
306.467
306.144
306.672
306.364
306.059
305.842
306.399
306.176
306.635
306.389
306.778
306.495
306.865
306.546
306.735
306.574
306.979
306.859
306.426
306.273
306.699
306.593
307.144
306.972
306.927
306.72
307.174
307.084
307.351
307.275
306.917
306.838
307.107
307.045
307.325
307.181
307.488
307.356
307.215
306.984
307.19
306.902
307.021
306.756
307.039
306.727
307.379
307.179
307.322
307.061
307.523
307.332
307.449
307.214
305.25
304.803
304.395
305.415
304.904
304.49
305.333
304.876
304.456
305.505
304.987
304.551
305.465
305.009
304.575
305.652
305.102
304.632
305.096
304.658
304.212
305.413
304.954
304.488
305.585
305.101
304.622
305.719
305.227
304.751
305.811
305.223
304.705
305.497
304.992
304.466
305.815
305.291
304.748
305.99
305.435
304.871
306.042
305.463
304.893
305.957
305.331
304.758
306.897
306.631
306.096
305.242
306.794
306.515
305.973
305.125
306.949
306.669
306.129
305.264
306.888
306.587
306.033
305.174
307.015
306.715
306.189
305.343
307.049
306.72
306.162
305.297
307.038
306.677
306.085
305.208
307.115
306.714
306.097
305.214
307.171
306.813
306.255
305.386
307.151
306.766
306.245
305.454
307.062
306.737
306.232
305.428
307.033
306.683
306.201
305.459
307.262
306.872
306.269
305.365
307.255
306.84
306.284
305.468
307.356
306.933
306.306
305.401
307.348
306.905
306.329
305.509
306.875
306.631
306.138
305.326
306.726
306.513
306.087
305.372
306.892
306.638
306.149
305.342
306.736
306.511
306.088
305.38
306.915
306.644
306.167
305.38
306.772
306.525
306.098
305.396
306.926
306.632
306.172
305.426
306.807
306.535
306.109
305.424
306.916
306.599
306.155
305.464
306.505
306.318
305.932
305.391
306.26
306.091
305.699
305.181
306.534
306.333
305.943
305.403
306.29
306.105
305.706
305.186
306.59
306.361
305.96
305.415
306.344
306.13
305.72
305.197
306.669
306.405
305.991
305.441
306.417
306.168
305.742
305.213
306.77
306.461
306.028
305.467
306.5
306.211
305.766
305.228
306.962
306.573
306.086
305.497
306.712
306.335
305.844
305.28
306.867
306.517
306.056
305.48
306.607
306.272
305.804
305.254
307.047
306.627
306.116
305.514
306.81
306.396
305.882
305.31
307.131
306.682
306.154
305.545
306.903
306.456
305.922
305.341
304.093
303.226
302.533
302.005
301.625
304.028
303.178
302.493
301.97
301.593
304.103
303.231
302.537
302.007
301.627
304.044
303.188
302.501
301.976
301.598
304.12
303.238
302.541
302.011
301.63
304.095
303.226
302.531
302.002
301.621
304.073
303.205
302.512
301.983
301.604
304.095
303.22
302.521
301.99
301.609
304.134
303.246
302.546
302.014
301.632
304.081
303.181
302.485
301.959
301.582
304.119
303.228
302.53
302
301.62
304.061
303.163
302.471
301.947
301.572
304.139
303.249
302.547
302.013
301.631
304.078
303.176
302.479
301.953
301.576
304.161
303.263
302.556
302.02
301.636
304.087
303.178
302.479
301.952
301.574
304.084
303.205
302.513
301.987
301.609
304.006
303.125
302.442
301.924
301.552
304.087
303.204
302.511
301.985
301.607
304.008
303.124
302.441
301.923
301.551
304.088
303.199
302.505
301.979
301.601
304.009
303.122
302.438
301.92
301.547
304.067
303.171
302.479
301.955
301.579
303.999
303.11
302.426
301.908
301.537
304.022
303.129
302.442
301.922
301.549
302.181
302.083
302.245
302.144
302.361
302.247
302.516
302.375
302.687
302.511
302.986
302.792
302.841
302.646
303.12
302.937
303.25
303.086
301.375
300.584
299.986
299.564
299.298
301.378
300.586
299.983
299.559
299.29
301.405
300.599
299.994
299.568
299.301
301.407
300.598
299.99
299.562
299.293
301.462
300.628
300.011
299.579
299.308
301.462
300.627
300.006
299.572
299.3
301.542
300.671
300.035
299.593
299.319
301.536
300.665
300.028
299.585
299.309
301.639
300.724
300.066
299.613
299.333
301.617
300.711
300.055
299.602
299.322
301.846
300.853