/*--------------------------------*- C++ -*----------------------------------*\
  =========                 |
  \\      /  F ield         | OpenFOAM: The Open Source CFD Toolbox
   \\    /   O peration     | Website:  https://openfoam.org
    \\  /    A nd           | Version:  13
     \\/     M anipulation  |
\*---------------------------------------------------------------------------*/
FoamFile
{
    format      ascii;
    class       volScalarField;
    location    "494.831886";
    object      T;
}
// * * * * * * * * * * * * * * * * * * * * * * * * * * * * * * * * * * * * * //

dimensions      [0 0 0 1 0 0 0];

internalField   nonuniform List<scalar> 
5712
(
324.081
324.12
324.186
324.247
324.344
324.406
324.564
324.615
324.521
324.579
324.348
324.407
324.222
324.278
324.128
324.17
324.393
324.472
324.498
324.607
324.66
324.762
324.758
324.886
323.942
323.714
323.984
323.771
324.041
323.823
324.107
323.901
324.268
324.146
324.379
324.226
323.957
324.086
324.63
324.824
324.736
324.881
324.873
325.037
325
325.124
324.4
324.602
324.516
324.669
324.216
324.412
323.453
323.298
323.562
323.401
323.563
323.368
323.691
323.512
323.723
323.46
323.92
323.676
324.073
323.831
324.247
324.002
324.451
324.487
324.62
324.637
324.806
324.85
324.94
324.985
324.311
324.266
324.113
324.106
324.762
324.762
324.892
324.866
325.061
325.098
325.176
325.195
324.473
324.398
324.617
324.506
324.008
323.714
323.898
323.567
323.795
323.494
323.731
323.388
324.184
323.898
324.035
323.711
324.34
324.058
324.144
323.825
323.084
322.745
323.028
322.692
323.186
322.87
323.084
322.763
323.358
323.115
323.179
322.914
324.214
324.632
323.834
323.548
323.24
324.572
324.13
323.678
323.373
323.04
324.681
324.288
323.907
323.546
323.194
322.432
322.278
322.262
322.125
322.59
322.413
322.369
322.22
322.865
322.666
322.552
322.375
324.474
324.311
323.991
323.771
323.546
323.318
323.192
322.966
322.725
322.5
324.608
324.477
324.167
323.938
323.754
323.494
323.344
323.063
322.828
322.534
324.374
324.117
324.559
324.332
324.807
324.731
324.973
324.929
324.121
323.82
323.94
323.62
324.717
324.489
324.82
324.602
325.107
325.066
325.204
325.173
324.286
323.979
324.389
324.09
323.623
323.26
323.009
322.571
323.477
323.096
322.911
322.48
323.758
323.407
323.103
322.672
323.885
323.53
323.236
322.828
322.229
322.161
322.035
322.197
322.169
322.054
322.33
322.246
322.112
322.274
322.238
322.115
322.539
322.427
322.277
322.39
322.336
322.197
324.112
323.885
323.644
323.536
323.338
323.126
323.101
322.93
322.744
322.789
322.645
322.467
322.483
322.408
322.244
324.292
324.037
323.764
323.633
323.367
323.098
323.184
322.949
322.709
322.822
322.645
322.433
322.489
322.391
322.202
325.136
325.218
325.209
325.315
324.921
325.022
325.005
325.13
325.179
325.347
325.199
325.356
325.228
325.378
325.263
325.404
325.38
325.31
325.424
325.342
325.409
325.467
325.398
325.494
325.231
325.339
325.427
325.519
325.492
325.579
325.501
325.591
325.517
325.667
325.489
325.63
325.539
325.693
325.532
325.675
325.559
325.728
325.599
325.753
325.629
325.764
325.706
325.817
325.326
325.398
325.421
325.501
325.1
325.163
325.212
325.279
325.568
325.663
325.485
325.572
325.514
325.591
325.607
325.67
325.317
325.38
325.419
325.468
325.65
325.743
325.734
325.813
325.691
325.824
325.77
325.849
325.624
325.766
325.69
325.782
325.758
325.875
325.84
325.906
325.832
325.93
325.901
325.957
325.51
325.435
325.651
325.573
325.512
325.433
325.661
325.581
325.515
325.444
325.678
325.606
325.256
324.988
325.424
325.557
325.699
324.933
325.198
325.354
325.485
325.635
325.038
325.299
325.486
325.613
325.716
325.308
325.132
325.444
325.273
325.317
325.15
325.464
325.3
325.343
325.185
325.504
325.351
324.861
324.725
325.141
325.003
325.301
325.16
325.424
325.28
325.566
325.421
324.993
324.913
325.26
325.179
325.442
325.345
325.559
325.441
325.649
325.502
325.412
325.382
325.519
325.517
325.169
325.147
325.297
325.312
325.661
325.624
325.57
325.508
325.6
325.622
325.679
325.709
325.396
325.432
325.484
325.53
325.735
325.717
325.805
325.795
325.749
325.673
325.79
325.671
325.666
325.568
325.724
325.59
325.818
325.759
325.846
325.742
325.876
325.825
325.897
325.806
324.894
324.657
324.435
324.979
324.712
324.489
324.926
324.687
324.459
325.018
324.749
324.516
324.974
324.739
324.508
325.081
324.799
324.551
324.543
324.316
324.072
324.816
324.581
324.33
324.969
324.723
324.468
325.078
324.832
324.584
325.15
324.853
324.582
324.767
324.521
324.244
325.026
324.774
324.494
325.169
324.902
324.614
325.234
324.952
324.661
325.218
324.906
324.608
325.73
325.628
325.36
324.868
325.685
325.576
325.299
324.803
325.749
325.643
325.374
324.878
325.721
325.604
325.325
324.827
325.775
325.663
325.405
324.923
325.786
325.66
325.385
324.893
325.778
325.638
325.344
324.839
325.807
325.651
325.344
324.835
325.835
325.701
325.432
324.944
325.826
325.683
325.436
324.997
325.792
325.672
325.429
324.976
325.778
325.65
325.421
325.007
325.87
325.723
325.432
324.925
325.868
325.712
325.451
325
325.906
325.745
325.444
324.939
325.905
325.737
325.468
325.019
325.721
325.631
325.387
324.924
325.658
325.582
325.374
324.97
325.727
325.634
325.393
324.933
325.661
325.581
325.375
324.974
325.735
325.636
325.403
324.956
325.674
325.586
325.379
324.983
325.737
325.63
325.409
324.988
325.687
325.589
325.385
325
325.731
325.615
325.404
325.019
325.561
325.498
325.311
325.021
325.452
325.397
325.205
324.934
325.573
325.504
325.316
325.027
325.465
325.403
325.209
324.937
325.595
325.516
325.323
325.032
325.487
325.413
325.215
324.942
325.627
325.533
325.336
325.044
325.517
325.429
325.224
324.948
325.668
325.557
325.352
325.056
325.552
325.447
325.234
324.955
325.748
325.602
325.374
325.067
325.642
325.499
325.267
324.978
325.709
325.579
325.362
325.061
325.597
325.473
325.25
324.967
325.783
325.623
325.384
325.072
325.684
325.524
325.282
324.99
325.817
325.645
325.399
325.084
325.723
325.548
325.298
325.002
324.121
323.519
323.007
322.592
322.272
324.083
323.488
322.978
322.563
322.244
324.125
323.522
323.009
322.593
322.273
324.09
323.493
322.982
322.566
322.247
324.134
323.525
323.011
322.595
322.275
324.117
323.516
323.003
322.587
322.267
324.103
323.501
322.987
322.57
322.25
324.111
323.507
322.992
322.574
322.253
324.139
323.528
323.013
322.596
322.276
324.109
323.484
322.967
322.55
322.231
324.132
323.518
323.002
322.585
322.266
324.099
323.474
322.958
322.541
322.222
324.14
323.528
323.012
322.594
322.274
324.105
323.479
322.961
322.544
322.224
324.149
323.534
323.017
322.598
322.277
324.107
323.478
322.959
322.541
322.221
324.117
323.505
322.992
322.576
322.257
324.072
323.452
322.938
322.523
322.205
324.118
323.504
322.99
322.574
322.255
324.073
323.452
322.938
322.523
322.204
324.117
323.5
322.985
322.569
322.249
324.073
323.449
322.935
322.519
322.201
324.104
323.48
322.965
322.548
322.229
324.065
323.44
322.925
322.509
322.19
324.077
323.452
322.936
322.52
322.201
321.551
321.455
321.595
321.496
321.676
321.566
321.778
321.649
321.88
321.731
322.043
321.871
321.96
321.791
322.124
321.958
322.209
322.058
320.498
319.35
318.389
317.643
317.137
320.515
319.359
318.387
317.637
317.122
320.518
319.361
318.395
317.648
317.141
320.533
319.367
318.393
317.639
317.125
320.558
319.383
318.41
317.659
317.15
320.572
319.388
318.407
317.649
317.134
320.612
319.415
318.431
317.675
317.164
320.621
319.417
318.427
317.663
317.146
320.676
319.456
318.459
317.696
317.182
320.675
319.452
318.451
317.682
317.162
320.812
319.556
318.534
317.755
317.234
320.798
319.542
318.518
317.735
317.21
320.744
319.505
318.495
317.724
317.206
320.733
319.493
318.48
317.705
317.183
320.881
319.609
318.575
317.789
317.264
320.871
319.599
318.562
317.772
317.243
320.95
319.663
318.618
317.823
317.295
320.951
319.659
318.61
317.811
317.277
325.384
325.231
325.097
325.272
325.042
325.066
325.073
325.106
325.023
325.068
324.819
324.871
324.711
324.77
324.864
324.914
324.924
324.958
324.936
324.962
325.26
325.298
324.828
324.643
324.586
324.567
324.736
324.829
324.616
324.863
324.432
324.158
324.812
324.735
324.522
324.753
324.659
324.641
325.005
325.017
324.898
324.939
324.994
325.038
324.985
324.917
324.679
324.723
324.812
324.856
325.184
325.241
325.139
325.184
325.113
325.099
324.969
324.809
324.973
325.538
325.68
325.741
325.732
325.654
325.504
325.622
325.674
325.653
325.552
324.967
325.031
325.037
324.981
324.861
324.776
324.835
324.836
324.776
324.654
324.72
324.782
324.785
324.728
324.607
324.7
324.759
324.759
324.7
324.578
324.873
324.936
324.94
324.884
324.763
325.132
325.316
325.413
325.432
325.376
324.939
325.137
325.239
325.258
325.193
325.078
325.216
325.289
325.285
325.192
324.73
324.92
325.014
325.024
324.944
324.448
324.641
324.736
324.747
324.667
324.982
325.081
325.12
325.09
324.983
324.933
325.058
325.119
325.105
325.007
324.713
324.833
324.891
324.874
324.775
324.912
324.999
325.028
324.989
324.879
324.827
324.925
324.963
324.932
324.825
324.796
324.881
324.907
324.867
324.755
325.283
325.439
325.518
325.525
325.458
325.207
325.324
325.378
325.359
325.259
325.06
325.15
325.181
325.145
325.034
325.093
325.175
325.199
325.157
325.043
325.161
325.255
325.291
325.257
325.149
325.195
325.281
325.307
325.266
325.153
325.132
325.205
325.22
325.171
325.053
325.063
325.135
325.149
325.1
324.983
324.823
324.894
324.908
324.858
324.741
324.863
324.929
324.938
324.884
324.765
324.964
325.043
325.064
325.02
324.906
325.003
325.077
325.093
325.044
324.928
325.454
325.6
325.666
325.662
325.588
325.434
325.546
325.594
325.57
325.467
325.363
325.492
325.556
325.547
325.463
325.357
325.454
325.491
325.459
325.35
325.276
325.365
325.396
325.358
325.247
325.285
325.397
325.447
325.427
325.325
325.118
325.193
325.209
325.161
325.045
324.949
325.016
325.025
324.972
324.853
325.126
325.206
325.227
325.182
325.068
325.292
325.207
325.285
325.19
325.495
325.396
325.498
325.411
325.277
325.266
325.186
325.204
325.491
325.486
325.4
325.427
325.077
324.868
325.001
324.8
325.076
324.887
324.987
324.801
324.983
325.062
325.027
325.08
324.915
324.835
325.075
324.979
325.117
325.012
325.282
325.181
325.341
325.242
324.875
324.773
324.936
324.819
324.723
324.599
324.676
324.51
324.617
324.459
324.69
324.492
324.613
324.439
324.724
324.455
324.671
324.433
324.568
324.324
324.425
324.177
325.2
325.146
325.156
325.095
325.467
325.449
325.421
325.405
324.903
324.749
324.942
324.802
325.087
325.033
324.997
324.956
325.353
325.348
325.271
325.279
324.832
324.685
324.735
324.601
324.64
324.343
324.391
324.056
324.666
324.347
324.437
324.083
324.572
324.288
324.328
324.003
324.469
324.189
324.242
323.922
324.663
324.566
324.478
324.325
324.678
324.599
324.45
324.304
324.707
324.664
324.401
324.28
325.211
325.487
324.941
324.652
324.286
325.496
325.234
324.965
324.66
324.223
325.472
325.176
324.835
324.464
324.081
324.408
324.337
323.922
323.779
324.482
324.411
323.951
323.808
324.592
324.534
323.986
323.842
325.491
325.452
325.211
325.165
324.92
324.873
324.568
324.508
323.94
323.787
325.471
325.431
325.145
325.049
324.775
324.653
324.347
324.201
323.772
323.585
325.068
324.901
325.022
324.852
325.439
325.423
325.4
325.394
324.605
324.361
324.661
324.429
324.983
324.787
324.907
324.698
325.353
325.336
325.285
325.26
324.565
324.29
324.481
324.189
324.107
323.791
323.475
323.077
324.191
323.885
323.59
323.218
324.042
323.715
323.377
322.966
323.981
323.632
323.323
322.92
324.31
324.248
323.872
323.864
324.381
324.313
323.891
323.888
324.487
324.388
323.909
323.901
325.371
325.227
325.077
324.943
324.796
324.68
324.446
324.336
323.875
323.875
325.35
325.196
324.917
324.776
324.537
324.432
324.154
324.107
323.76
323.789
325.831
325.836
325.742
325.779
325.68
325.685
325.587
325.626
325.937
326.013
325.854
325.932
325.934
326.005
325.844
325.919
325.858
325.935
325.869
325.927
325.988
325.915
325.697
325.598
325.544
325.448
325.75
325.639
325.784
325.685
325.81
325.708
326.058
326.087
325.979
326.012
326.057
326.093
325.974
326.017
326.051
326.1
325.988
326.047
325.894
325.963
325.803
325.89
325.863
325.868
325.821
325.838
325.691
325.694
325.647
325.657
325.937
325.961
325.975
325.985
325.76
325.794
325.688
325.739
325.583
325.606
325.506
325.544
325.88
325.923
325.811
325.874
326.02
326.077
326.031
326.06
326.055
326.099
326.05
326.074
325.966
326.036
325.998
326.035
325.902
325.984
325.955
326
326.092
326.079
326.116
326.093
326.085
326.071
326.115
326.09
326.069
326.057
326.109
326.087
325.878
325.71
325.989
326.062
326.097
325.709
325.87
325.978
326.05
326.081
325.713
325.88
325.992
326.054
326.073
326.023
325.926
326.027
325.921
326.023
325.932
326.031
325.931
326.021
325.941
326.038
325.946
325.708
325.671
325.869
325.822
325.968
325.908
326.029
325.96
326.044
325.959
325.723
325.707
325.887
325.864
325.989
325.949
326.039
325.977
326.041
325.957
325.891
325.897
325.856
325.879
325.72
325.74
325.678
325.72
325.962
325.951
325.99
325.966
325.802
325.838
325.746
325.779
325.619
325.674
325.558
325.609
325.915
325.913
325.865
325.859
326.013
325.965
326.007
325.925
326.035
325.976
326.028
325.94
325.977
325.934
325.977
325.893
325.931
325.884
325.94
325.855
325.806
325.694
325.768
325.637
325.821
325.701
325.78
325.641
325.834
325.702
325.798
325.636
325.59
325.445
325.733
325.584
325.814
325.664
325.855
325.701
325.811
325.62
325.642
325.475
325.787
325.612
325.851
325.668
325.855
325.664
325.792
325.576
326.021
325.824
325.494
324.959
325.953
325.757
325.423
324.887
326.025
325.83
325.501
324.961
325.96
325.766
325.435
324.902
326.029
325.835
325.522
324.999
325.987
325.797
325.479
324.956
325.913
325.73
325.407
324.882
325.856
325.684
325.367
324.851
326.01
325.82
325.515
325.001
325.975
325.785
325.509
325.051
326.02
325.827
325.536
325.048
325.983
325.788
325.517
325.075
325.981
325.798
325.486
324.964
325.96
325.775
325.496
325.036
325.944
325.771
325.462
324.953
325.936
325.759
325.484
325.032
326.043
325.847
325.534
325.024
326.012
325.817
325.534
325.08
326.039
325.843
325.535
325.028
326.006
325.81
325.53
325.08
326.028
325.833
325.537
325.044
325.997
325.801
325.524
325.082
326.008
325.812
325.533
325.07
325.985
325.789
325.519
325.09
325.978
325.782
325.518
325.097
325.939
325.745
325.478
325.148
325.843
325.649
325.378
325.07
325.939
325.744
325.479
325.15
325.843
325.648
325.377
325.069
325.938
325.742
325.476
325.147
325.841
325.645
325.374
325.067
325.936
325.738
325.475
325.147
325.839
325.64
325.37
325.064
325.93
325.732
325.473
325.148
325.834
325.633
325.364
325.059
325.899
325.704
325.447
325.126
325.812
325.613
325.348
325.043
325.918
325.72
325.461
325.137
325.827
325.626
325.358
325.053
325.875
325.686
325.43
325.11
325.788
325.594
325.332
325.03
325.848
325.666
325.415
325.097
325.757
325.571
325.314
325.016
324.174
323.552
323.028
322.605
322.283
324.134
323.52
322.998
322.576
322.254
324.174
323.551
323.028
322.605
322.283
324.135
323.52
322.999
322.578
322.256
324.177
323.552
323.028
322.606
322.283
324.155
323.539
323.018
322.596
322.274
324.128
323.517
322.997
322.577
322.255
324.121
323.513
322.996
322.576
322.255
324.173
323.549
323.026
322.605
322.282
324.138
323.502
322.978
322.558
322.236
324.172
323.542
323.017
322.595
322.273
324.134
323.495
322.971
322.55
322.229
324.163
323.542
323.021
322.6
322.278
324.125
323.491
322.969
322.549
322.228
324.157
323.539
323.02
322.6
322.279
324.114
323.483
322.962
322.543
322.222
324.173
323.539
323.013
322.59
322.268
324.13
323.486
322.96
322.538
322.216
324.17
323.536
323.01
322.588
322.265
324.128
323.485
322.959
322.537
322.215
324.164
323.528
323.003
322.581
322.259
324.123
323.479
322.954
322.532
322.21
324.146
323.506
322.981
322.559
322.237
324.11
323.467
322.942
322.521
322.199
324.116
323.475
322.951
322.53
322.209
322.896
322.785
322.881
322.767
322.845
322.728
322.789
322.674
322.697
322.598
322.463
322.334
322.568
322.456
322.372
322.23
322.29
322.146
321.476
320.046
318.905
318.052
317.492
321.508
320.063
318.907
318.048
317.478
321.462
320.036
318.898
318.046
317.487
321.489
320.048
318.899
318.038
317.472
321.433
320.016
318.884
318.035
317.478
321.461
320.029
318.886
318.028
317.464
321.388
319.985
318.861
318.018
317.464
321.419
320.001
318.866
318.013
317.45
321.323
319.942
318.83
317.994
317.442
321.366
319.966
318.84
317.993
317.433
321.169
319.834
318.751
317.931
317.389
321.197
319.852
318.758
317.929
317.38
321.247
319.891
318.793
317.964
317.417
321.289
319.916
318.804
317.965
317.41
321.094
319.777
318.707
317.896
317.359
321.109
319.786
318.708
317.89
317.347
321.021
319.719
318.662
317.859
317.327
321.029
319.72
318.659
317.851
317.312
325.509
325.365
325.471
325.622
325.828
325.743
325.829
325.732
325.679
325.578
325.679
325.592
323.959
323.986
324.052
324.158
324.301
324.473
323.949
323.974
324.038
324.137
324.267
324.42
323.892
323.792
323.922
323.826
323.997
323.911
324.116
324.049
324.277
324.225
324.464
324.408
324.658
324.833
324.984
325.109
325.203
325.272
324.584
324.744
324.887
325.008
325.102
325.168
324.082
324.13
324.122
324.056
323.933
324.109
324.157
324.149
324.084
323.961
324.176
324.225
324.218
324.153
324.03
324.283
324.333
324.327
324.262
324.139
324.427
324.48
324.475
324.411
324.288
324.602
324.657
324.654
324.592
324.47
324.072
324.12
324.112
324.047
323.924
324.097
324.146
324.138
324.073
323.95
324.161
324.211
324.204
324.139
324.016
324.262
324.313
324.306
324.242
324.119
324.394
324.447
324.442
324.378
324.256
324.55
324.605
324.603
324.541
324.419
324.014
324.062
324.054
323.988
323.866
323.914
323.962
323.953
323.888
323.766
324.045
324.093
324.085
324.019
323.897
323.948
323.997
323.988
323.923
323.801
324.12
324.169
324.161
324.096
323.974
324.033
324.083
324.075
324.01
323.888
324.241
324.291
324.285
324.22
324.097
324.173
324.223
324.217
324.152
324.03
324.404
324.456
324.451
324.387
324.264
324.352
324.404
324.4
324.336
324.214
324.593
324.648
324.646
324.584
324.461
324.537
324.593
324.591
324.529
324.407
324.791
324.85
324.851
324.791
324.669
324.972
325.036
325.042
324.987
324.866
325.13
325.202
325.216
325.165
325.047
325.265
325.347
325.37
325.326
325.212
325.371
325.463
325.494
325.457
325.345
325.447
325.545
325.58
325.546
325.436
324.717
324.776
324.777
324.718
324.596
324.881
324.945
324.95
324.894
324.773
325.03
325.1
325.111
325.059
324.94
325.158
325.234
325.251
325.204
325.087
325.258
325.34
325.363
325.319
325.204
325.327
325.413
325.438
325.396
325.282
323.973
324.027
324.122
324.255
324.426
324.627
323.963
324.016
324.106
324.232
324.389
324.567
323.906
323.807
323.965
323.872
324.069
323.986
324.218
324.156
324.409
324.364
324.629
324.585
324.839
325.032
325.186
325.288
325.328
325.317
324.75
324.919
325.057
325.153
325.201
325.203
324.096
324.144
324.136
324.07
323.947
324.15
324.199
324.19
324.125
324.002
324.245
324.294
324.286
324.221
324.097
324.38
324.43
324.423
324.357
324.233
324.553
324.604
324.598
324.533
324.409
324.756
324.81
324.805
324.741
324.617
324.086
324.134
324.126
324.06
323.937
324.139
324.187
324.179
324.114
323.991
324.23
324.279
324.271
324.206
324.083
324.357
324.407
324.4
324.335
324.212
324.516
324.567
324.561
324.497
324.373
324.696
324.749
324.745
324.682
324.558
324.029
324.077
324.068
324.003
323.88
323.929
323.977
323.968
323.903
323.78
324.088
324.136
324.128
324.062
323.939
323.994
324.042
324.033
323.968
323.845
324.192
324.241
324.233
324.167
324.044
324.109
324.158
324.15
324.085
323.962
324.343
324.393
324.385
324.32
324.196
324.28
324.33
324.323
324.257
324.134
324.535
324.586
324.58
324.515
324.391
324.49
324.541
324.535
324.47
324.347
324.758
324.811
324.806
324.742
324.618
324.713
324.767
324.762
324.698
324.574
324.971
325.028
325.026
324.964
324.84
325.169
325.23
325.232
325.173
325.05
325.329
325.397
325.405
325.35
325.229
325.44
325.517
325.534
325.486
325.368
325.492
325.58
325.607
325.566
325.451
325.491
325.587
325.62
325.585
325.474
324.882
324.939
324.937
324.875
324.752
325.055
325.116
325.118
325.059
324.936
325.198
325.265
325.272
325.217
325.096
325.3
325.373
325.387
325.336
325.217
325.355
325.434
325.454
325.408
325.291
325.362
325.446
325.47
325.427
325.313
325.338
325.359
325.057
324.84
324.83
324.778
324.976
325.469
325.409
325.44
325.266
325.282
325.314
325.174
325.148
325.065
325.481
325.463
325.306
325.29
325.384
325.356
325.236
325.208
325.016
325.013
325.179
325.178
325.413
325.409
325.481
325.42
325.397
325.465
325.252
325.079
325.292
325.612
325.747
325.802
325.79
325.707
325.563
325.678
325.726
325.702
325.599
325.193
325.253
325.254
325.194
325.07
324.972
325.028
325.025
324.962
324.838
324.962
325.019
325.018
324.956
324.832
324.909
324.964
324.961
324.898
324.774
325.11
325.168
325.168
325.106
324.983
325.711
325.833
325.882
325.863
325.78
325.643
325.76
325.803
325.779
325.688
325.619
325.717
325.752
325.718
325.607
325.475
325.579
325.613
325.58
325.476
325.433
325.508
325.524
325.474
325.356
325.478
325.564
325.589
325.547
325.432
325.318
325.388
325.398
325.345
325.224
325.296
325.368
325.381
325.33
325.211
325.207
325.275
325.283
325.228
325.107
325.719
325.839
325.886
325.865
325.779
325.632
325.724
325.753
325.715
325.602
325.455
325.528
325.541
325.49
325.37
325.435
325.505
325.515
325.462
325.341
325.538
325.616
325.634
325.586
325.467
325.505
325.579
325.594
325.543
325.423
325.379
325.446
325.453
325.398
325.276
325.348
325.413
325.419
325.362
325.239
325.154
325.216
325.219
325.161
325.039
325.149
325.209
325.211
325.151
325.027
325.32
325.387
325.395
325.339
325.218
325.318
325.383
325.388
325.331
325.209
325.669
325.796
325.847
325.831
325.745
325.596
325.7
325.739
325.708
325.6
325.686
325.794
325.837
325.811
325.714
325.585
325.673
325.7
325.659
325.545
325.552
325.631
325.65
325.603
325.486
325.636
325.729
325.76
325.723
325.611
325.395
325.462
325.47
325.414
325.293
325.215
325.276
325.278
325.219
325.096
325.437
325.507
325.517
325.463
325.342
325.228
325.346
325.393
325.375
325.298
325.145
325.32
325.31
325.527
325.531
325.3
325.281
325.52
325.509
325.097
324.864
325.095
324.885
325.073
325.084
324.923
325.326
325.315
325.535
325.541
325.304
325.285
325.526
325.512
325.085
324.839
325.083
324.867
325.063
325.08
324.907
325.323
325.311
325.537
325.545
325.299
325.28
325.526
325.512
325.073
324.776
325.072
324.812
325.051
325.07
324.862
325.281
325.269
325.5
325.507
325.256
325.233
325.488
325.471
325.015
324.701
325.016
324.74
324.998
325.02
324.799
325.205
325.194
325.423
325.431
325.181
325.154
325.412
325.395
324.938
324.644
324.94
324.675
324.926
324.942
324.733
325.069
325.059
325.282
325.29
325.048
325.026
325.272
325.256
324.817
324.546
324.822
324.575
324.81
324.827
324.634
325.861
325.862
325.712
325.713
325.858
325.855
325.708
325.702
325.969
326.05
325.963
326.037
325.961
325.947
326.012
325.872
325.871
325.722
325.724
325.864
325.857
325.715
325.708
325.984
326.05
325.975
326.035
325.967
325.948
326.008
325.876
325.873
325.725
325.73
325.863
325.853
325.716
325.705
325.977
326.02
325.966
326.006
325.952
325.933
325.981
325.839
325.833
325.688
325.694
325.821
325.807
325.677
325.666
325.929
325.95
325.916
325.937
325.898
325.874
325.913
325.758
325.752
325.609
325.615
325.736
325.717
325.598
325.586
325.838
325.847
325.825
325.836
325.805
325.778
325.817
325.61
325.604
325.465
325.471
325.588
325.572
325.454
325.442
325.689
325.712
325.676
325.701
325.659
325.637
325.681
324.074
324.111
324.184
324.245
324.343
324.405
324.564
324.614
324.52
324.578
324.347
324.406
324.221
324.276
324.119
324.159
324.392
324.471
324.498
324.607
324.66
324.761
324.757
324.886
323.937
323.71
323.977
323.765
324.04
323.822
324.106
323.9
324.267
324.145
324.378
324.225
323.956
324.086
324.629
324.823
324.736
324.88
324.873
325.037
324.999
325.124
324.399
324.601
324.515
324.668
324.216
324.412
323.449
323.295
323.557
323.396
323.562
323.368
323.691
323.512
323.723
323.459
323.92
323.675
324.073
323.831
324.247
324.001
324.451
324.486
324.619
324.636
324.806
324.85
324.94
324.984
324.31
324.265
324.113
324.106
324.762
324.761
324.891
324.866
325.061
325.098
325.175
325.195
324.473
324.398
324.617
324.506
324.008
323.713
323.897
323.567
323.795
323.494
323.73
323.387
324.184
323.897
324.035
323.711
324.34
324.058
324.144
323.824
323.08
322.741
323.025
322.689
323.186
322.87
323.083
322.762
323.358
323.115
323.178
322.914
324.213
324.631
323.834
323.548
323.24
324.572
324.13
323.678
323.372
323.039
324.681
324.288
323.906
323.546
323.194
322.427
322.273
322.259
322.122
322.59
322.413
322.368
322.22
322.865
322.666
322.552
322.375
324.474
324.311
323.991
323.771
323.546
323.318
323.191
322.966
322.725
322.5
324.608
324.477
324.167
323.938
323.754
323.493
323.344
323.063
322.828
322.534
324.374
324.117
324.559
324.332
324.807
324.73
324.973
324.929
324.121
323.82
323.94
323.62
324.717
324.489
324.82
324.602
325.107
325.066
325.204
325.173
324.286
323.979
324.389
324.09
323.623
323.26
323.009
322.571
323.477
323.096
322.911
322.48
323.758
323.406
323.103
322.672
323.885
323.53
323.236
322.828
322.224
322.157
322.032
322.195
322.166
322.052
322.33
322.246
322.112
322.274
322.238
322.115
322.539
322.427
322.277
322.39
322.336
322.197
324.112
323.885
323.644
323.536
323.338
323.126
323.101
322.93
322.744
322.789
322.645
322.467
322.483
322.408
322.244
324.292
324.037
323.764
323.633
323.367
323.098
323.184
322.949
322.709
322.822
322.645
322.433
322.489
322.391
322.202
325.136
325.218
325.209
325.315
324.921
325.022
325.005
325.13
325.176
325.344
325.195
325.352
325.228
325.378
325.263
325.404
325.38
325.309
325.424
325.341
325.409
325.467
325.398
325.494
325.231
325.339
325.427
325.519
325.492
325.579
325.501
325.591
325.515
325.665
325.485
325.627
325.538
325.693
325.532
325.675
325.559
325.728
325.599
325.753
325.629
325.764
325.706
325.817
325.326
325.398
325.421
325.501
325.1
325.162
325.212
325.279
325.568
325.663
325.485
325.572
325.514
325.591
325.607
325.67
325.317
325.379
325.419
325.468
325.65
325.743
325.734
325.813
325.691
325.824
325.77
325.848
325.624
325.766
325.69
325.782
325.758
325.875
325.84
325.906
325.832
325.93
325.901
325.956
325.508
325.435
325.65
325.573
325.512
325.433
325.661
325.581
325.515
325.444
325.678
325.606
325.255
324.987
325.424
325.557
325.699
324.933
325.197
325.354
325.485
325.635
325.038
325.299
325.486
325.613
325.715
325.307
325.131
325.444
325.273
325.317
325.15
325.464
325.3
325.343
325.184
325.504
325.351
324.861
324.725
325.141
325.003
325.301
325.16
325.424
325.28
325.566
325.421
324.993
324.913
325.26
325.179
325.442
325.345
325.559
325.441
325.649
325.502
325.412
325.382
325.518
325.517
325.169
325.147
325.296
325.311
325.661
325.623
325.57
325.508
325.6
325.622
325.679
325.708
325.395
325.432
325.484
325.53
325.735
325.717
325.805
325.795
325.749
325.672
325.789
325.671
325.666
325.568
325.724
325.59
325.817
325.759
325.846
325.742
325.875
325.824
325.897
325.806
324.892
324.656
324.434
324.979
324.712
324.489
324.926
324.687
324.459
325.018
324.749
324.516
324.974
324.739
324.508
325.081
324.799
324.551
324.543
324.316
324.072
324.816
324.58
324.33
324.969
324.723
324.468
325.078
324.832
324.584
325.15
324.853
324.582
324.767
324.521
324.243
325.025
324.774
324.494
325.169
324.902
324.614
325.234
324.952
324.661
325.218
324.906
324.608
325.728
325.627
325.359
324.867
325.683
325.574
325.297
324.801
325.749
325.643
325.374
324.878
325.721
325.604
325.325
324.827
325.775
325.663
325.405
324.923
325.786
325.66
325.385
324.893
325.778
325.638
325.344
324.839
325.807
325.651
325.344
324.835
325.835
325.701
325.432
324.944
325.826
325.683
325.436
324.997
325.792
325.672
325.429
324.976
325.778
325.65
325.421
325.007
325.87
325.723
325.432
324.925
325.868
325.712
325.451
325
325.906
325.745
325.444
324.939
325.905
325.737
325.468
325.019
325.721
325.631
325.387
324.924
325.658
325.582
325.374
324.969
325.727
325.634
325.393
324.933
325.661
325.581
325.375
324.974
325.735
325.636
325.403
324.956
325.674
325.586
325.379
324.983
325.737
325.63
325.409
324.988
325.687
325.589
325.385
325
325.731
325.615
325.404
325.019
325.561
325.498
325.311
325.021
325.452
325.397
325.206
324.935
325.573
325.504
325.316
325.027
325.465
325.403
325.209
324.937
325.595
325.516
325.323
325.032
325.487
325.413
325.215
324.941
325.627
325.533
325.336
325.044
325.517
325.429
325.224
324.948
325.668
325.557
325.352
325.056
325.552
325.446
325.234
324.955
325.748
325.602
325.374
325.067
325.642
325.499
325.267
324.978
325.709
325.579
325.362
325.061
325.597
325.472
325.25
324.967
325.783
325.623
325.384
325.072
325.684
325.524
325.282
324.99
325.817
325.645
325.399
325.084
325.722
325.548
325.298
325.002
324.121
323.519
323.007
322.591
322.272
324.082
323.488
322.977
322.562
322.243
324.125
323.522
323.009
322.593
322.273
324.09
323.493
322.982
322.566
322.247
324.134
323.525
323.011
322.595
322.275
324.118
323.516
323.003
322.587
322.267
324.103
323.501
322.987
322.57
322.25
324.112
323.507
322.992
322.574
322.254
324.14
323.529
323.013
322.596
322.276
324.109
323.484
322.967
322.55
322.231
324.133
323.518
323.002
322.586
322.266
324.099
323.474
322.958
322.541
322.222
324.14
323.528
323.012
322.594
322.274
324.105
323.479
322.961
322.544
322.224
324.149
323.534
323.017
322.598
322.277
324.107
323.478
322.959
322.541
322.221
324.117
323.505
322.992
322.577
322.257
324.072
323.452
322.939
322.524
322.206
324.118
323.504
322.99
322.574
322.255
324.073
323.452
322.938
322.523
322.204
324.117
323.5
322.985
322.569
322.249
324.073
323.449
322.935
322.519
322.201
324.104
323.48
322.965
322.548
322.229
324.065
323.44
322.925
322.509
322.191
324.077
323.452
322.936
322.52
322.201
321.549
321.453
321.595
321.496
321.675
321.566
321.778
321.649
321.88
321.731
322.043
321.871
321.96
321.791
322.124
321.958
322.208
322.058
320.497
319.349
318.388
317.643
317.136
320.514
319.359
318.387
317.637
317.122
320.518
319.361
318.395
317.648
317.141
320.533
319.367
318.393
317.639
317.125
320.558
319.383
318.41
317.659
317.15
320.571
319.388
318.407
317.649
317.134
320.612
319.415
318.431
317.675
317.164
320.621
319.417
318.426
317.663
317.146
320.675
319.456
318.459
317.696
317.182
320.674
319.452
318.45
317.682
317.162
320.812
319.556
318.534
317.755
317.234
320.798