/*--------------------------------*- C++ -*----------------------------------*\
  =========                 |
  \\      /  F ield         | OpenFOAM: The Open Source CFD Toolbox
   \\    /   O peration     | Website:  https://openfoam.org
    \\  /    A nd           | Version:  13
     \\/     M anipulation  |
\*---------------------------------------------------------------------------*/
FoamFile
{
    format      ascii;
    class       volScalarField;
    location    "409.831886";
    object      T;
}
// * * * * * * * * * * * * * * * * * * * * * * * * * * * * * * * * * * * * * //

dimensions      [0 0 0 1 0 0 0];

internalField   nonuniform List<scalar> 
5712
(
339.236
339.541
340.015
340.483
341.039
341.542
342.287
342.729
341.821
342.326
340.831
341.32
340.042
340.48
339.404
339.733
341.555
342.232
342.409
343.35
343.115
343.959
343.952
345.054
338.495
337.213
338.804
337.583
339.262
338.018
339.754
338.548
341.053
340.13
341.922
340.744
339.006
339.929
343.436
345.016
344.404
345.616
344.923
346.334
346.049
347.147
342.053
343.641
342.99
344.23
340.881
342.405
335.733
334.755
336.337
335.295
336.531
335.3
337.285
336.116
337.697
336.055
338.988
337.385
340.075
338.455
341.421
339.731
342.243
342.571
343.588
343.808
344.328
344.679
345.51
345.855
341.707
341.631
340.242
340.382
344.768
344.858
345.87
345.751
346.589
346.859
347.614
347.726
342.966
342.692
344.136
343.584
339.835
337.94
339.457
337.446
338.356
336.503
338.224
336.201
341.124
339.214
340.505
338.483
342.336
340.398
341.374
339.344
333.539
331.581
333.203
331.322
334.245
332.357
333.63
331.801
335.403
333.876
334.35
332.808
340.472
342.81
338.316
336.717
334.932
342.269
339.798
337.193
335.521
333.701
343.23
341.026
338.907
336.907
334.913
329.79
328.696
329.076
328.132
330.682
329.432
329.696
328.677
332.288
330.857
330.801
329.593
341.399
339.964
338.735
336.984
336.25
334.526
334.346
332.708
331.967
330.458
342.541
341.323
340.085
338.316
337.825
335.923
335.614
333.666
332.897
330.989
341.726
339.815
343.166
341.431
344.185
343.222
345.552
344.772
340.671
338.62
339.299
337.126
344.401
342.668
345.277
343.614
346.678
345.913
347.54
346.856
341.914
339.833
342.771
340.737
337.884
335.632
334.552
332.056
336.754
334.373
333.731
331.254
338.907
336.729
335.308
332.862
339.868
337.655
336.252
333.916
327.962
327.164
326.203
327.91
327.271
326.355
328.528
327.622
326.597
328.356
327.655
326.664
329.683
328.598
327.449
329.046
328.187
327.07
338.233
336.373
334.511
335.057
333.397
331.766
332.756
331.258
329.81
331.179
329.833
328.461
329.641
328.575
327.266
339.633
337.471
335.309
335.906
333.735
331.693
333.486
331.498
329.66
331.582
329.886
328.231
329.774
328.472
326.964
345.864
346.583
346.569
347.527
344.626
345.481
345.399
346.498
345.587
346.648
345.79
346.759
346.108
347.034
346.456
347.304
347.582
346.892
348.085
347.244
347.459
348.043
348.341
349.292
347.429
348.435
348.101
349.078
348.78
349.664
348.441
349.385
347.759
348.749
347.584
348.437
348.06
349.037
348.077
348.909
348.418
349.431
348.903
349.738
349.283
349.925
350.088
350.508
347.359
347.917
348.337
348.925
346.056
346.52
347.123
347.607
349.145
349.849
348.25
348.937
349.263
349.797
350.173
350.566
348.12
348.545
349.083
349.369
349.99
350.644
350.851
351.349
349.792
350.434
350.39
350.639
349.045
349.823
349.58
349.959
350.511
350.993
351.102
351.235
351.286
351.591
351.733
351.761
347.406
346.602
348.511
347.738
347.528
346.684
348.647
347.848
347.731
346.974
348.873
348.16
346.457
344.862
347.44
348.279
349.132
344.339
345.888
346.713
347.538
348.507
345.304
346.881
348.028
348.78
349.294
345.409
343.869
346.546
345.044
345.584
344.091
346.773
345.324
345.978
344.533
347.209
345.843
343.61
342.32
345.259
343.923
346.157
344.805
346.913
345.547
347.856
346.542
344.776
343.867
346.387
345.458
347.502
346.471
348.191
347.002
348.652
347.296
347.787
347.151
348.804
348.35
346.327
345.728
347.479
347.101
349.607
348.92
348.707
347.864
349.622
349.312
350.381
350.141
348.407
348.159
349.227
349.063
350.363
349.805
351.061
350.564
350.005
349.058
350.006
348.804
349.197
348.099
349.374
348.063
350.691
349.885
350.569
349.484
351.302
350.544
351.107
350.141
341.848
339.898
338.114
342.552
340.332
338.526
342.174
340.185
338.349
342.919
340.671
338.774
342.7
340.722
338.836
343.519
341.141
339.102
340.677
338.773
336.824
342.23
340.239
338.215
343.086
340.995
338.916
343.731
341.614
339.559
344.171
341.639
339.399
342.413
340.25
337.979
343.94
341.708
339.376
344.787
342.423
340.004
345.083
342.609
340.165
344.78
342.091
339.616
348.948
347.824
345.475
341.595
348.549
347.364
344.963
341.087
349.148
347.975
345.606
341.682
348.913
347.645
345.202
341.289
349.414
348.168
345.872
342.04
349.568
348.191
345.75
341.83
349.543
348.029
345.427
341.437
349.881
348.199
345.482
341.459
350.057
348.58
346.153
342.234
349.974
348.4
346.144
342.587
349.601
348.263
346.07
342.44
349.481
348.051
345.964
342.625
350.443
348.827
346.204
342.129
350.413
348.709
346.31
342.646
350.844
349.088
346.361
342.286
350.807
348.986
346.502
342.831
348.84
347.821
345.662
341.989
348.219
347.333
345.476
342.25
348.904
347.849
345.712
342.061
348.256
347.331
345.48
342.285
348.998
347.875
345.795
342.24
348.405
347.388
345.526
342.363
349.041
347.831
345.835
342.469
348.546
347.433
345.583
342.495
348.998
347.702
345.78
342.67
347.301
346.533
344.848
342.456
346.291
345.601
343.888
341.616
347.425
346.6
344.898
342.508
346.418
345.664
343.925
341.642
347.652
346.72
344.972
342.562
346.64
345.772
343.984
341.692
347.979
346.902
345.105
342.674
346.942
345.929
344.079
341.761
348.397
347.141
345.268
342.794
347.291
346.112
344.184
341.831
349.203
347.618
345.517
342.924
348.183
346.646
344.526
342.064
348.805
347.376
345.386
342.85
347.737
346.375
344.351
341.948
349.569
347.847
345.645
342.999
348.605
346.908
344.692
342.196
349.93
348.087
345.811
343.134
349.006
347.17
344.868
342.335
336.179
332.014
328.631
326.014
324.113
335.898
331.803
328.448
325.847
323.958
336.222
332.036
328.645
326.023
324.121
335.962
331.842
328.475
325.868
323.976
336.297
332.071
328.666
326.039
324.134
336.183
332.014
328.619
325.995
324.092
336.09
331.92
328.526
325.904
324.005
336.185
331.984
328.569
325.935
324.03
336.357
332.105
328.687
326.052
324.144
336.13
331.807
328.402
325.788
323.897
336.294
332.024
328.614
325.988
324.085
336.047
331.731
328.337
325.732
323.846
336.379
332.116
328.689
326.049
324.138
336.12
331.783
328.372
325.756
323.865
336.477
332.177
328.73
326.078
324.162
336.16
331.795
328.371
325.748
323.854
336.142
331.916
328.534
325.924
324.029
335.8
331.55
328.197
325.616
323.743
336.156
331.914
328.527
325.915
324.021
335.814
331.553
328.196
325.613
323.74
336.161
331.891
328.498
325.885
323.991
335.819
331.543
328.181
325.596
323.722
336.07
331.766
328.375
325.77
323.882
335.774
331.487
328.124
325.542
323.67
335.876
331.575
328.199
325.608
323.732
325.84
325.342
326.128
325.621
326.673
326.098
327.394
326.693
328.18
327.323
329.543
328.593
328.877
327.926
330.165
329.271
330.78
329.98
321.442
316.988
313.511
310.988
309.371
321.476
317.004
313.496
310.964
309.326
321.578
317.056
313.551
311.014
309.391
321.606
317.064
313.536
310.98
309.342
321.852
317.202
313.636
311.069
309.433
321.87
317.203
313.617
311.033
309.382
322.232
317.411
313.762
311.153
309.497
322.218
317.394
313.732
311.108
309.439
322.689
317.679
313.928
311.264
309.581
322.606
317.62
313.872
311.202
309.511
323.681
318.325
314.355
311.562
309.817
323.545
318.223
314.267
311.48
309.733
323.187
317.995
314.133
311.404
309.691
323.051
317.897
314.048
311.324
309.607
324.159
318.655
314.584
311.727
309.949
324.068
318.582
314.516
311.659
309.877
324.63
318.988
314.818
311.897
310.086
324.605
318.953
314.78
311.851
310.028
348.336
347.483
346.235
347.206
344.709
344.942
345.103
345.428
344.936
345.358
343.744
344.202
342.901
343.412
343.763
344.21
344.023
344.353
343.967
344.221
346.715
346.416
340.649
338.837
338.555
338.244
339.83
343.162
341.405
342.678
339.694
337.503
341.509
341.352
339.525
340.771
340.219
339.785
344.415
343.636
342.054
342.188
342.973
343.125
342.319
341.718
339.728
339.895
341.058
341.256
345.94
345.663
345.113
344.777
343.912
344.288
342.239
340.61
342.417
348.665
349.545
349.799
349.493
348.634
347.977
348.776
349.002
348.62
347.568
341.754
342.242
342.244
341.741
340.721
339.874
340.315
340.291
339.788
338.803
339.594
340.045
340.034
339.546
338.573
339.265
339.699
339.675
339.18
338.21
340.908
341.379
341.374
340.875
339.874
345.2
346.329
346.838
346.757
346.118
343.523
344.727
345.271
345.206
344.509
344.236
345.144
345.522
345.284
344.359
341.633
342.776
343.259
343.138
342.346
339.319
340.452
340.924
340.812
340.055
342.805
343.489
343.672
343.294
342.316
342.793
343.616
343.925
343.642
342.711
340.882
341.652
341.931
341.644
340.744
341.986
342.598
342.721
342.306
341.326
341.472
342.132
342.305
341.934
340.982
340.959
341.543
341.65
341.236
340.274
346.349
347.316
347.712
347.539
346.801
345.082
345.876
346.144
345.815
344.83
343.317
343.958
344.096
343.679
342.674
343.414
344.013
344.109
343.659
342.636
344.283
344.957
345.118
344.71
343.693
344.388
345.011
345.119
344.669
343.629
343.507
344.058
344.104
343.615
342.572
342.886
343.428
343.473
342.99
341.96
340.841
341.356
341.397
340.934
339.951
340.991
341.483
341.499
341.014
340.018
342.242
342.814
342.896
342.448
341.447
342.42
342.965
343.018
342.546
341.53
347.835
348.748
349.049
348.786
347.985
347.149
347.919
348.134
347.747
346.7
346.773
347.612
347.919
347.638
346.756
346.145
346.841
347.003
346.579
345.524
345.217
345.867
345.995
345.552
344.503
345.723
346.493
346.738
346.389
345.382
343.432
343.991
344.047
343.567
342.529
341.726
342.228
342.245
341.754
340.741
343.637
344.224
344.306
343.843
342.81
349.391
348.535
349.332
348.383
350.666
349.672
350.71
349.827
349.261
349.166
348.366
348.566
350.62
350.535
349.721
349.965
347.977
346.544
347.19
345.819
347.964
346.683
347.057
345.803
347.058
347.863
347.426
347.983
346.879
346.062
347.291
346.373
347.738
346.766
348.584
347.63
349.145
348.223
346.043
345.085
346.566
345.506
345.031
343.946
345.166
343.879
344.505
343.276
345.302
343.808
344.482
343.148
345.606
343.666
344.989
343.225
344.039
342.263
342.85
341.089
348.683
348.245
348.256
347.789
350.32
350.105
349.885
349.685
346.654
345.654
347.071
346.118
347.606
347.23
346.798
346.545
349.25
349.147
348.482
348.495
345.99
345.09
345.134
344.385
344.919
342.832
343.415
341.24
345.273
343.063
343.833
341.557
344.264
342.264
342.871
340.761
343.379
341.425
342.165
340.107
345.324
344.901
343.936
343.235
345.465
345.111
343.802
343.116
345.678
345.504
343.54
342.969
348.814
350.493
347.155
345.314
342.875
350.56
348.977
347.337
345.423
342.611
350.334
348.517
346.408
344.096
341.673
344.021
343.428
341.065
340.059
344.45
343.858
341.207
340.201
345.081
344.569
341.363
340.351
350.478
350.048
348.799
348.339
347.025
346.582
344.86
344.352
341.039
339.982
350.257
349.747
348.269
347.449
346.004
345.061
343.407
342.365
339.994
338.781
347.637
346.324
347.17
345.823
349.894
349.427
349.445
348.995
344.669
342.97
345.17
343.543
346.723
345.211
346.042
344.433
348.937
348.389
348.287
347.661
344.24
342.358
343.536
341.549
341.716
339.728
338.087
335.785
342.359
340.403
338.866
336.677
341.173
339.124
337.391
335.034
340.638
338.451
336.919
334.6
342.939
342.257
340.162
339.781
343.38
342.63
340.246
339.873
343.993
343.001
340.302
339.83
349.192
347.75
347.461
346.118
345.806
344.624
343.661
342.528
340.02
339.489
348.808
347.233
346.233
344.796
343.951
342.763
341.632
340.781
339.151
338.701
352.646
352.649
351.748
352.072
351.774
351.755
350.856
351.178
353.223
353.523
352.35
352.672
353.2
353.495
352.248
352.578
352.379
353.186
352.55
353.139
353.412
352.621
351.254
350.302
350.381
349.464
351.309
350.255
351.696
350.711
351.566
350.558
353.593
353.398
352.762
352.61
353.629
353.459
352.73
352.641
353.667
353.54
352.994
352.954
352.034
352.075
351.09
351.287
352.719
352.627
352.302
352.291
351.692
351.604
351.266
351.221
352.936
352.929
353.338
353.223
351.694
351.824
350.972
351.248
350.648
350.714
349.908
350.099
352.339
352.505
351.632
351.975
353.281
353.21
353.161
352.944
353.658
353.484
353.417
353.138
352.7
352.748
352.783
352.639
352.02
352.189
352.3
352.235
353.984
353.9
353.735
353.568
353.969
353.867
353.726
353.535
353.891
353.81
353.67
353.498
352.868
351.86
353.478
353.764
353.512
351.863
352.839
353.44
353.717
353.41
351.81
352.789
353.353
353.523
353.197
353.393
352.473
352.976
352.021
353.437
352.574
353.018
352.1
353.484
352.718
353.07
352.225
351.81
351.383
352.78
352.29
353.294
352.719
353.476
352.81
353.053
352.28
351.802
351.46
352.756
352.369
353.249
352.733
353.324
352.645
352.889
352.101
352.614
352.338
352.191
351.997
351.623
351.44
351.151
351.058
352.711
352.294
353.079
352.594
351.634
351.491
351.051
350.856
350.561
350.51
349.941
349.832
352.221
351.828
351.679
351.23
352.786
352.115
352.343
351.478
353.107
352.366
352.641
351.755
352.376
351.717
351.978
351.082
351.884
351.169
351.574
350.656
351.339
350.253
350.627
349.388
351.518
350.351
350.719
349.41
351.695
350.379
350.85
349.326
350.521
349.045
351.363
349.863
351.769
350.278
351.777
350.235
350.897
349.095
350.628
348.946
351.459
349.715
351.687
349.895
351.43
349.591
350.586
348.567
352.235
350.065
347.003
342.612
351.53
349.406
346.365
342.027
352.265
350.103
347.047
342.622
351.58
349.477
346.457
342.123
352.275
350.126
347.204
342.902
351.827
349.745
346.826
342.547
351.047
349.068
346.149
341.923
350.426
348.576
345.745
341.638
352.014
349.932
347.101
342.886
351.629
349.547
346.968
343.19
352.163
350.022
347.289
343.255
351.75
349.612
347.056
343.385
351.689
349.691
346.818
342.564
351.428
349.416
346.828
343.043
351.274
349.387
346.574
342.438
351.151
349.226
346.68
342.969
352.485
350.286
347.341
343.111
352.204
349.993
347.289
343.489
352.432
350.237
347.334
343.13
352.126
349.918
347.24
343.479
352.306
350.121
347.318
343.232
352.017
349.816
347.174
343.47
352.069
349.892
347.242
343.391
351.869
349.677
347.105
343.505
351.748
349.578
347.073
343.547
351.499
349.294
346.725
343.854
350.563
348.376
345.786
343.079
351.489
349.284
346.725
343.864
350.548
348.36
345.774
343.067
351.446
349.244
346.688
343.828
350.501
348.314
345.731
343.041
351.384
349.186
346.664
343.816
350.441
348.253
345.686
343.006
351.28
349.095
346.623
343.803
350.342
348.157
345.611
342.946
350.863
348.76
346.339
343.576
350.014
347.895
345.413
342.766
351.098
348.943
346.491
343.695
350.217
348.053
345.535
342.879
350.58
348.545
346.155
343.417
349.721
347.673
345.237
342.63
350.268
348.321
345.982
343.276
349.374
347.423
345.049
342.479
336.769
332.368
328.847
326.154
324.218
336.459
332.142
328.655
325.981
324.058
336.761
332.359
328.842
326.151
324.216
336.452
332.139
328.656
325.985
324.063
336.774
332.355
328.839
326.151
324.217
336.592
332.26
328.77
326.092
324.164
336.374
332.092
328.631
325.972
324.056
336.293
332.049
328.609
325.961
324.049
336.727
332.326
328.821
326.14
324.209
336.455
331.999
328.518
325.863
323.953
336.729
332.282
328.77
326.089
324.161
336.434
331.959
328.475
325.821
323.913
336.634
332.269
328.782
326.109
324.183
336.341
331.914
328.452
325.808
323.903
336.566
332.231
328.762
326.099
324.178
336.237
331.841
328.398
325.766
323.867
336.759
332.282
328.756
326.067
324.137
336.432
331.92
328.421
325.76
323.851
336.736
332.258
328.735
326.05
324.122
336.417
331.906
328.41
325.751
323.843
336.682
332.198
328.684
326.006
324.081
336.369
331.863
328.375
325.722
323.816
336.533
332.038
328.54
325.877
323.962
336.258
331.769
328.296
325.652
323.752
336.301
331.824
328.35
325.705
323.805
335.254
334.624
335.154
334.511
334.927
334.27
334.568
333.931
333.995
333.459
332.533
331.863
333.203
332.616
331.932
331.19
331.362
330.604
327.855
321.162
316.308
312.966
310.927
327.991
321.225
316.311
312.951
310.882
327.771
321.107
316.271
312.941
310.908
327.885
321.151
316.272
312.912
310.857
327.6
320.996
316.199
312.891
310.869
327.718
321.046
316.204
312.865
310.821
327.332
320.825
316.086
312.812
310.807
327.473
320.891
316.103
312.794
310.765
326.949
320.584
315.927
312.699
310.718
327.155
320.694
315.973
312.702
310.693
326.019
319.982
315.52
312.408
310.49
326.159
320.065
315.555
312.409
310.469
326.493
320.3
315.737
312.563
310.611
326.701
320.419
315.792
312.575
310.595
325.557
319.657
315.292
312.243
310.361
325.625
319.696
315.301
312.229
310.33
325.093
319.321
315.055
312.07
310.223
325.113
319.318
315.04
312.041
310.178
349.538
348.727
349.723
350.584
352.668
351.781
352.66
351.664
351.792
350.775
351.814
350.926
332.563
332.796
333.385
334.329
335.62
337.206
332.545
332.767
333.329
334.217
335.401
336.82
332.066
331.372
332.326
331.663
332.978
332.389
334.034
333.585
335.467
335.146
337.164
336.799
338.963
340.706
342.306
343.738
344.886
345.707
338.377
339.945
341.42
342.721
343.763
344.483
333.405
333.737
333.676
333.22
332.375
333.644
333.98
333.92
333.463
332.612
334.25
334.595
334.536
334.073
333.209
335.221
335.58
335.524
335.052
334.166
336.551
336.93
336.88
336.396
335.481
338.187
338.594
338.554
338.059
337.108
333.387
333.72
333.66
333.205
332.36
333.616
333.953
333.893
333.437
332.587
334.194
334.539
334.482
334.02
333.158
335.108
335.467
335.413
334.943
334.061
336.327
336.706
336.658
336.179
335.27
337.792
338.197
338.159
337.67
336.729
332.895
333.222
333.161
332.712
331.879
332.183
332.503
332.443
332.003
331.187
333.162
333.493
333.433
332.982
332.143
332.483
332.808
332.749
332.306
331.483
333.833
334.173
334.115
333.656
332.802
333.229
333.564
333.507
333.056
332.217
334.919
335.275
335.219
334.751
333.872
334.459
334.81
334.756
334.294
333.427
336.394
336.772
336.722
336.241
335.329
336.066
336.442
336.394
335.918
335.015
338.144
338.551
338.511
338.017
337.068
337.771
338.176
338.14
337.652
336.713
340.003
340.446
340.423
339.919
338.932
341.813
342.301
342.302
341.797
340.776
343.486
344.028
344.065
343.569
342.522
344.999
345.604
345.687
345.21
344.146
346.227
346.891
347.014
346.557
345.483
347.101
347.796
347.937
347.485
346.399
339.402
339.838
339.815
339.319
338.345
341.028
341.503
341.5
341.001
339.997
342.564
343.083
343.106
342.61
341.58
343.926
344.489
344.542
344.053
343.002
345.022
345.623
345.7
345.217
344.15
345.774
346.395
346.482
345.999
344.918
332.688
333.17
334.012
335.215
336.773
338.638
332.669
333.138
333.947
335.084
336.514
338.164
332.194
331.504
332.712
332.062
333.626
333.061
334.955
334.544
336.67
336.395
338.685
338.404
340.655
342.577
344.213
345.433
346.074
346.136
339.909
341.577
343.011
344.081
344.69
344.812
333.532
333.865
333.803
333.346
332.497
334.027
334.365
334.303
333.839
332.979
334.891
335.239
335.177
334.703
333.822
336.126
336.489
336.427
335.939
335.029
337.727
338.11
338.05
337.545
336.597
339.645
340.054
339.999
339.474
338.483
333.513
333.847
333.786
333.329
332.481
333.994
334.333
334.271
333.809
332.949
334.825
335.174
335.112
334.64
333.761
335.993
336.356
336.295
335.81
334.904
337.462
337.845
337.787
337.286
336.346
339.161
339.568
339.516
338.999
338.02
333.026
333.354
333.292
332.841
332.004
332.318
332.639
332.578
332.136
331.317
333.556
333.89
333.828
333.37
332.521
332.89
333.217
333.156
332.707
331.874
334.495
334.839
334.777
334.308
333.436
333.916
334.254
334.193
333.731
332.873
335.859
336.219
336.157
335.672
334.768
335.438
335.794
335.733
335.254
334.36
337.621
338.002
337.942
337.438
336.492
337.339
337.718
337.659
337.159
336.221
339.692
340.101
340.044
339.518
338.525
339.404
339.81
339.754
339.232
338.246
341.724
342.166
342.12
341.578
340.541
343.71
344.192
344.163
343.611
342.532
345.413
345.941
345.94
345.39
344.281
346.706
347.291
347.331
346.799
345.677
347.419
348.062
348.15
347.65
346.532
347.532
348.217
348.344
347.875
346.774
340.96
341.396
341.354
340.824
339.805
342.685
343.156
343.128
342.59
341.537
344.177
344.687
344.682
344.144
343.064
345.302
345.854
345.879
345.351
344.255
345.956
346.547
346.603
346.092
344.993
346.106
346.723
346.802
346.308
345.216
347.447
346.995
342.788
340.665
340.759
340.166
342.039
348.95
348.411
347.886
346.785
345.692
346.435
344.484
344.413
343.437
348.799
347.745
345.753
345.415
346.572
346.097
344.683
344.419
342.721
342.533
344.353
344.197
348.076
347.258
348.312
347.008
346.59
347.704
344.879
343.099
345.375
349.387
350.22
350.433
350.086
349.177
348.552
349.331
349.531
349.122
348.044
343.922
344.4
344.365
343.806
342.72
341.731
342.169
342.12
341.576
340.537
341.829
342.272
342.225
341.682
340.642
341.217
341.648
341.597
341.057
340.03
343.146
343.608
343.566
343.01
341.94
350.722
351.452
351.592
351.158
350.207
350.126
350.807
350.902
350.433
349.428
349.31
349.986
350.087
349.578
348.428
348.347
348.953
348.999
348.494
347.407
346.952
347.515
347.53
346.975
345.837
347.761
348.368
348.417
347.882
346.741
345.69
346.217
346.211
345.655
344.538
345.627
346.163
346.168
345.62
344.509
344.608
345.115
345.103
344.553
343.459
350.563
351.305
351.453
351.024
350.065
349.137
349.794
349.88
349.36
348.204
347.007
347.564
347.574
347.014
345.871
346.65
347.193
347.193
346.629
345.492
347.87
348.46
348.492
347.94
346.788
347.369
347.939
347.959
347.403
346.256
345.892
346.42
346.413
345.853
344.731
345.61
346.122
346.104
345.538
344.418
343.858
344.34
344.311
343.757
342.675
343.659
344.131
344.094
343.537
342.456
345.547
346.063
346.048
345.486
344.369
345.38
345.888
345.867
345.302
344.187
349.94
350.723
350.91
350.527
349.587
348.736
349.46
349.61
349.152
348.038
349.917
350.628
350.779
350.333
349.298
348.375
349.024
349.11
348.598
347.459
347.899
348.501
348.546
348.005
346.857
349.107
349.777
349.879
349.374
348.226
346.092
346.62
346.612
346.049
344.921
344.242
344.725
344.692
344.13
343.037
346.609
347.151
347.151
346.588
345.452
344.781
345.89
346.426
346.405
345.848
344.611
349.718
349.633
351.01
351.064
349.522
349.339
350.907
350.742
348.251
346.705
348.229
346.861
348.063
348.105
347.107
349.82
349.719
351.113
351.185
349.586
349.383
350.983
350.773
348.255
346.67
348.227
346.842
348.053
348.111
347.076
349.863
349.743
351.165
351.259
349.581
349.347
350.997
350.753
348.255
346.333
348.21
346.535
348.004
348.046
346.798
349.525
349.392
350.823
350.935
349.196
348.903
350.628
350.334
347.822
345.763
347.776
345.964
347.554
347.582
346.264
348.817
348.678
350.079
350.198
348.461
348.109
349.871
349.555
347.108
345.155
347.059
345.303
346.837
346.804
345.586
347.499
347.363
348.703
348.823
347.159
346.84
348.493
348.186
345.923
344.178
345.885
344.306
345.682
345.659
344.582
353.023
353.003
352.144
352.177
352.927
352.829
352.06
351.922
353.564
353.909
353.514
353.844
353.455
353.336
353.691
353.144
353.102
352.25
352.303
352.993
352.856
352.134
351.968
353.711
353.959
353.632
353.862
353.517
353.355
353.682
353.213
353.142
352.305
352.383
352.99
352.812
352.147
351.931
353.688
353.702
353.581
353.611
353.406
353.225
353.437
352.858
352.765
351.954
352.051
352.578
352.344
351.766
351.514
353.236
353.038
353.109
352.949
352.88
352.656
352.783
352.066
351.962
351.182
351.288
351.74
351.447
350.98
350.701
352.356
352.054
352.218
351.979
351.965
351.705
351.842
350.602
350.495
349.757
349.866
350.274
350.006
349.551
349.275
350.884
350.732
350.754
350.647
350.532
350.307
350.51
339.183
339.472
340.004
340.474
341.031
341.535
342.281
342.724
341.814
342.32
340.822
341.312
340.031
340.469
339.342
339.655
341.549
342.229
342.403
343.347
343.11
343.955
343.947
345.051
338.453
337.181
338.747
337.536
339.253
338.012
339.748
338.544
341.048
340.124
341.918
340.74
339.001
339.924
343.433
345.014
344.402
345.614
344.92
346.332
346.047
347.145
342.05
343.638
342.987
344.228
340.877
342.403
335.704
334.729
336.296
335.255
336.527
335.296
337.282
336.114
337.694
336.052
338.985
337.382
340.073
338.453
341.419
339.729
342.24
342.569
343.585
343.806
344.325
344.677
345.507
345.853
341.704
341.629
340.239
340.38
344.766
344.856
345.868
345.75
346.587
346.857
347.613
347.725
342.964
342.691
344.135
343.582
339.832
337.938
339.455
337.445
338.353
336.5
338.222
336.199
341.122
339.212
340.503
338.481
342.334
340.396
341.373
339.343
333.508
331.551
333.181
331.302
334.243
332.356
333.627
331.798
335.401
333.874
334.348
332.806
340.47
342.808
338.314
336.715
334.93
342.268
339.796
337.191
335.519
333.699
343.228
341.024
338.906
336.905
334.911
329.762
328.67
329.059
328.118
330.682
329.432
329.695
328.676
332.287
330.857
330.8
329.592
341.397
339.962
338.734
336.983
336.248
334.525
334.345
332.707
331.966
330.457
342.539
341.321
340.083
338.314
337.823
335.922
335.613
333.665
332.896
330.988
341.724
339.813
343.164
341.429
344.183
343.221
345.55
344.771
340.669
338.618
339.297
337.125
344.399
342.666
345.275
343.613
346.677
345.912
347.539
346.855
341.912
339.832
342.77
340.736
337.882
335.631
334.551
332.055
336.753
334.371
333.729
331.252
338.906
336.728
335.307
332.861
339.866
337.654
336.251
333.915
327.939
327.144
326.185
327.896
327.259
326.344
328.528
327.622
326.597
328.355
327.654
326.662
329.682
328.597
327.449
329.045
328.186
327.069
338.232
336.372
334.511
335.056
333.396
331.765
332.755
331.257
329.81
331.179
329.832
328.46
329.64
328.574
327.265
339.631
337.47
335.308
335.905
333.734
331.692
333.485
331.497
329.659
331.581
329.885
328.23
329.773
328.472
326.964
345.862
346.581
346.567
347.525
344.623
345.478
345.396
346.495
345.558
346.62
345.749
346.72
346.106
347.032
346.456
347.304
347.581
346.89
348.083
347.242
347.457
348.042
348.34
349.291
347.427
348.433
348.099
349.077
348.778
349.663
348.439
349.384
347.736
348.732
347.549
348.409
348.059
349.036
348.077
348.908
348.416
349.43
348.902
349.737
349.282
349.924
350.087
350.507
347.357
347.915
348.335
348.923
346.054
346.518
347.121
347.605
349.143
349.848
348.249
348.936
349.261
349.796
350.172
350.565
348.118
348.544
349.081
349.367
349.989
350.643
350.85
351.348
349.791
350.433
350.389
350.639
349.044
349.822
349.579
349.958
350.51
350.992
351.101
351.234
351.285
351.591
351.732
351.76
347.391
346.591
348.502
347.733
347.528
346.684
348.646
347.847
347.73
346.973
348.872
348.159
346.456
344.86
347.439
348.278
349.131
344.338
345.886
346.711
347.537
348.506
345.302
346.88
348.027
348.779
349.293
345.401
343.859
346.543
345.04
345.584
344.091
346.772
345.323
345.978
344.533
347.208
345.842
343.608
342.319
345.258
343.922
346.156
344.804
346.913
345.546
347.855
346.541
344.775
343.866
346.386
345.457
347.501
346.47
348.19
347.001
348.651
347.295
347.785
347.15
348.802
348.349
346.326
345.727
347.477
347.1
349.605
348.919
348.706
347.863
349.62
349.31
350.38
350.14
348.405
348.158
349.225
349.062
350.361
349.804
351.06
350.563
350.004
349.056
350.005
348.803
349.196
348.097
349.373
348.062
350.69
349.884
350.568
349.483
351.301
350.543
351.106
350.14
341.837
339.886
338.102
342.548
340.326
338.519
342.174
340.185
338.349
342.918
340.67
338.773
342.699
340.721
338.835
343.518
341.14
339.101
340.676
338.772
336.823
342.229
340.238
338.215
343.085
340.994
338.915
343.73
341.613
339.558
344.17
341.638
339.398
342.412
340.25
337.979
343.939
341.707
339.375
344.786
342.422
340.003
345.082
342.609
340.164
344.779
342.09
339.616
348.937
347.816
345.466
341.585
348.527
347.345
344.946
341.071
349.147
347.975
345.605
341.682
348.913
347.645
345.203
341.291
349.414
348.167
345.872
342.04
349.568
348.191
345.75
341.831
349.542
348.029
345.428
341.438
349.881
348.199
345.482
341.459
350.056
348.579
346.153
342.235
349.974
348.4
346.144
342.587
349.601
348.263
346.07
342.44
349.481
348.051
345.964
342.625
350.443
348.826
346.204
342.129
350.412
348.709
346.31
342.646
350.844
349.087
346.361
342.286
350.806
348.986
346.502
342.831
348.836
347.818
345.659
341.983
348.218
347.334
345.476
342.248
348.902
347.848
345.712
342.061
348.256
347.33
345.48
342.285
348.997
347.875
345.795
342.24
348.404
347.388
345.526
342.363
349.04
347.831
345.835
342.47
348.545
347.432
345.582
342.495
348.998
347.702
345.78
342.67
347.303
346.537
344.852
342.457
346.294
345.605
343.893
341.62
347.424
346.599
344.898
342.507
346.417
345.663
343.924
341.641
347.651
346.72
344.972
342.562
346.64
345.771
343.984
341.691
347.978
346.901
345.105
342.674
346.941
345.929
344.079
341.761
348.397
347.14
345.267
342.794
347.291
346.111
344.183
341.831
349.202
347.617
345.517
342.924
348.182
346.645
344.525
342.064
348.804
347.375
345.386
342.85
347.736
346.374
344.351
341.948
349.568
347.847
345.645
342.999
348.605
346.908
344.692
342.196
349.929
348.087
345.81
343.134
349.005
347.169
344.868
342.335
336.176
332.013
328.631
326.013
324.113
335.889
331.797
328.443
325.842
323.953
336.222
332.037
328.645
326.024
324.121
335.964
331.844
328.477
325.869
323.977
336.298
332.071
328.667
326.039
324.134
336.184
332.015
328.62
325.996
324.092
336.091
331.921
328.527
325.905
324.006
336.186
331.985
328.57
325.936
324.031
336.358
332.105
328.687
326.053
324.144
336.131
331.808
328.402
325.788
323.898
336.294
332.024
328.614
325.988
324.086
336.047
331.731
328.338
325.732
323.847
336.38
332.117
328.689
326.05
324.139
336.12
331.784
328.373
325.757
323.865
336.478
332.178
328.73
326.079
324.163
336.16
331.796
328.371
325.749
323.855
336.143
331.919
328.536
325.926
324.032
335.804
331.555
328.201
325.62
323.746
336.155
331.914
328.527
325.915
324.021
335.813
331.553
328.196
325.613
323.739
336.161
331.891
328.498
325.885
323.991
335.819
331.542
328.181
325.596
323.722
336.07
331.766
328.376
325.77
323.882
335.774
331.487
328.125
325.542
323.67
335.876
331.576
328.2
325.608
323.732
325.826
325.332
326.128
325.62
326.672
326.097
327.393
326.693
328.179
327.322
329.542
328.592
328.876
327.925
330.164
329.27
330.779
329.979
321.435
316.983
313.509
310.986
309.37
321.472
317.002
313.495
310.964
309.326
321.577
317.056
313.551
311.014
309.391
321.605
317.063
313.535
310.98
309.342
321.851
317.201
313.636
311.069
309.433
321.87
317.202
313.617
311.033
309.382
322.231
317.41
313.762
311.152
309.496
322.217
317.393
313.731
311.108
309.439
322.689
317.678
313.928
311.263
309.581
322.605
317.62
313.872
311.202
309.511
323.68
318.324
314.355
311.562