/*--------------------------------*- C++ -*----------------------------------*\
  =========                 |
  \\      /  F ield         | OpenFOAM: The Open Source CFD Toolbox
   \\    /   O peration     | Website:  https://openfoam.org
    \\  /    A nd           | Version:  13
     \\/     M anipulation  |
\*---------------------------------------------------------------------------*/
FoamFile
{
    format      ascii;
    class       volScalarField;
    location    "419.831886";
    object      T;
}
// * * * * * * * * * * * * * * * * * * * * * * * * * * * * * * * * * * * * * //

dimensions      [0 0 0 1 0 0 0];

internalField   nonuniform List<scalar> 
5712
(
678.987
679.797
681.111
682.353
684.164
685.446
688.23
689.297
687.212
688.452
684.008
685.243
681.607
682.756
679.758
680.627
685.29
686.957
687.476
689.781
690.27
692.384
692.315
695.021
676.451
672.197
677.304
673.31
678.487
674.407
679.823
675.945
683.161
680.688
685.436
682.306
677.119
679.707
690.15
694.141
692.432
695.429
694.727
698.151
697.408
700.02
685.829
689.946
688.222
691.367
682.309
686.299
667.295
664.271
669.322
666.155
669.521
665.727
671.944
668.424
672.761
667.662
676.609
671.816
679.649
674.889
683.2
678.34
686.688
687.448
690.148
690.559
693.309
694.223
696.143
697.045
684.32
683.602
680.335
680.337
693.099
693.149
695.788
695.312
698.702
699.423
701.109
701.456
687.618
686.323
690.578
688.544
678.549
672.816
676.644
670.291
674.325
668.513
673.278
666.72
682.082
676.464
679.432
673.171
685.257
679.689
681.66
675.473
660.221
653.75
659.144
652.779
662.263
656.185
660.297
654.197
665.678
660.946
662.253
657.202
681.873
689.621
674.793
669.469
663.603
688.327
680.127
671.638
665.975
659.726
690.67
683.379
676.308
669.582
662.911
647.775
644.624
644.765
642.001
650.777
647.168
646.811
643.829
656.046
651.981
650.354
646.811
686.217
682.733
677.276
672.686
668.983
664.288
662.422
657.831
653.782
649.294
689.078
686.226
680.909
676.203
673.254
667.973
665.627
659.998
655.997
650.182
685.167
679.969
688.933
684.299
693.213
691.355
696.632
695.381
680.749
674.785
677.086
670.743
692.128
687.492
694.249
689.822
699.393
698.182
701.414
700.407
684.065
678.006
686.195
680.28
671.418
664.366
659.885
651.511
668.435
661.004
657.828
649.576
674.144
667.325
661.824
653.601
676.709
669.819
664.478
656.682
643.233
641.459
638.675
642.79
641.719
639.134
645.162
643.068
640.118
644.266
643.048
640.266
649.121
646.499
643.219
646.513
644.896
641.777
678.453
673.632
668.555
667.704
663.412
658.89
659.67
655.877
651.843
653.977
650.689
646.825
648.318
646.215
642.567
682.201
676.747
670.969
669.837
664.161
658.464
661.497
656.382
651.224
654.775
650.704
646.077
648.458
645.818
641.61
699.038
700.774
700.626
702.88
695.094
697.213
696.895
699.543
699.317
702.449
699.766
702.661
700.432
703.207
701.21
703.788
703.75
702.22
704.793
702.971
704.011
705.281
704.686
706.785
701.693
703.991
704.84
706.909
706.289
708.209
706.086
708.097
705.623
708.383
705.098
707.61
706.194
708.991
706.115
708.62
706.811
709.81
707.751
710.385
708.479
710.694
710.187
711.885
702.909
704.359
705.014
706.6
698.775
700.02
701.185
702.513
707.625
709.512
705.754
707.528
707.036
708.53
709.033
710.224
703.444
704.65
705.621
706.519
709.425
711.23
711.27
712.747
709.762
711.94
711.329
712.464
708.237
710.672
709.592
711.011
711.25
713.078
712.847
713.72
712.874
714.295
714.181
714.811
705.203
703.517
707.966
706.283
705.367
703.592
708.237
706.494
705.632
704.041
708.679
707.122
701.192
696.229
704.252
706.697
709.203
695.027
699.921
702.697
705.106
707.835
697.303
702.153
705.611
707.886
709.574
700.784
697.102
703.546
699.986
701.1
697.567
704.035
700.617
701.837
698.471
704.971
701.779
693.412
690.453
698.623
695.609
701.52
698.457
703.777
700.679
706.378
703.354
696.244
694.386
701.222
699.35
704.585
702.429
706.686
704.116
708.166
705.098
704.469
703.554
706.751
706.382
699.965
699.179
702.653
702.563
709.312
708.256
707.332
705.818
708.525
708.573
710.196
710.4
704.758
705.062
706.616
707.111
710.922
710.233
712.428
711.876
710.765
708.971
711.183
708.619
708.973
706.765
709.787
706.916
712.244
710.808
712.395
710.129
713.512
712.208
713.511
711.52
692.142
687.211
682.553
693.921
688.352
683.673
692.891
687.888
683.117
694.793
689.179
684.291
694.054
689.125
684.267
696.208
690.316
685.09
686.519
681.707
676.557
691.602
686.627
681.361
694.405
689.222
683.862
696.407
691.23
686.019
697.74
691.525
685.82
691.141
685.862
679.993
695.977
690.602
684.69
698.638
692.968
686.88
699.73
693.789
687.65
699.216
692.679
686.4
709.151
706.477
700.42
689.776
708.21
705.372
699.126
688.401
709.581
706.812
700.728
689.98
708.99
705.987
699.677
688.909
710.153
707.241
701.392
690.946
710.417
707.203
700.982
690.311
710.279
706.751
700.101
689.178
710.937
707.043
700.123
689.119
711.494
708.093
701.989
691.399
711.319
707.71
702.084
692.533
710.549
707.454
701.915
692.08
710.274
706.978
701.738
692.738
712.27
708.566
701.997
691.017
712.232
708.348
702.402
692.621
713.067
709.066
702.267
691.333
713.037
708.907
702.787
693.038
708.959
706.536
700.998
690.968
707.595
705.481
700.713
691.929
709.088
706.594
701.126
691.154
707.665
705.466
700.721
692.015
709.277
706.645
701.338
691.647
707.971
705.579
700.817
692.212
709.348
706.535
701.471
692.333
708.262
705.66
700.947
692.572
709.235
706.23
701.375
692.984
705.512
703.666
699.336
693.014
703.181
701.503
697.091
691.158
705.783
703.813
699.449
693.136
703.464
701.641
697.173
691.217
706.276
704.07
699.602
693.245
703.956
701.877
697.297
691.325
706.988
704.46
699.895
693.502
704.623
702.218
697.501
691.476
707.9
704.971
700.248
693.781
705.399
702.61
697.721
691.628
709.633
705.964
700.736
694.016
707.368
703.757
698.446
692.122
708.782
705.463
700.479
693.879
706.389
703.179
698.079
691.881
710.401
706.432
700.974
694.133
708.274
704.305
698.781
692.386
711.143
706.917
701.302
694.401
709.112
704.84
699.136
692.669
673.901
661.207
650.485
641.846
635.279
673.112
660.57
649.887
641.265
634.708
673.998
661.257
650.517
641.87
635.299
673.259
660.665
649.959
641.325
634.764
674.18
661.338
650.569
641.91
635.335
673.838
661.152
650.406
641.75
635.175
673.533
660.836
650.078
641.417
634.842
673.735
660.981
650.186
641.501
634.917
674.303
661.408
650.612
641.94
635.359
673.666
660.495
649.675
641.013
634.447
674.155
661.181
650.387
641.725
635.151
673.457
660.28
649.473
640.824
634.263
674.324
661.414
650.601
641.917
635.33
673.603
660.402
649.566
640.897
634.328
674.533
661.553
650.701
641.996
635.4
673.661
660.398
649.532
640.847
634.272
673.813
660.915
650.169
641.534
634.973
672.879
659.812
649.074
640.463
633.922
673.837
660.898
650.139
641.499
634.936
672.905
659.812
649.065
640.45
633.908
673.827
660.807
650.029
641.383
634.819
672.901
659.764
649.003
640.383
633.839
673.556
660.413
649.618
640.973
634.413
672.749
659.576
648.804
640.181
633.637
673
659.822
649.033
640.397
633.848
631.751
629.923
632.618
630.754
634.217
632.14
636.272
633.819
638.374
635.5
641.798
638.519
640.076
636.848
643.465
640.326
645.172
642.327
612.722
592.103
574.881
561.489
552.242
612.979
592.225
574.814
561.341
551.949
613.12
592.311
575.01
561.581
552.32
613.343
592.385
574.941
561.381
552.005
613.921
592.755
575.294
561.786
552.492
614.116
592.811
575.213
561.577
552.169
615.012
593.393
575.711
562.09
552.745
615.114
593.393
575.592
561.851
552.396
616.295
594.202
576.256
562.49
553.079
616.202
594.08
576.056
562.195
552.686
619.075
596.19
577.701
563.605
554.047
618.75
595.882
577.36
563.211
553.587
617.684
595.171
576.944
563.01
553.523
617.407
594.905
576.635
562.636
553.072
620.453
597.229
578.49
564.233
554.599
620.234
597
578.213
563.895
554.194
621.847
598.299
579.31
564.888
555.172
621.825
598.183
579.139
564.637
554.825
704.491
701.732
698.855
702.016
696.731
697.258
697.506
698.228
696.7
697.666
692.924
694.027
690.725
691.97
693.538
694.595
694.561
695.31
694.659
695.239
701.475
701.727
690.235
685.989
684.999
684.415
688.243
692.66
688.222
692.714
684.182
678.406
690.962
689.798
685.229
689.481
687.717
687.045
696.133
695.635
692.607
693.246
694.717
695.413
693.92
692.484
687.455
688.167
690.516
691.265
699.829
700.342
698.545
698.831
697.122
697.288
693.664
689.979
693.904
706.888
709.53
710.524
710.119
708.302
705.843
708.102
708.964
708.332
706.044
693.13
694.443
694.518
693.289
690.706
688.775
689.982
689.961
688.668
686.072
687.815
689.064
689.092
687.841
685.272
687.189
688.39
688.369
687.081
684.496
691.102
692.384
692.434
691.19
688.61
698.552
701.998
703.711
703.859
702.512
694.481
698.208
700.04
700.216
698.696
697.01
699.666
700.964
700.664
698.574
689.985
693.574
695.26
695.273
693.454
684.04
687.707
689.412
689.442
687.635
694.44
696.388
697.067
696.299
693.953
693.783
696.201
697.294
696.833
694.653
689.079
691.403
692.425
691.92
689.735
692.74
694.471
694.958
694.048
691.636
691.15
693.066
693.726
692.949
690.613
690.238
691.911
692.35
691.413
688.998
701.565
704.493
705.869
705.776
704.194
699.481
701.732
702.68
702.12
699.878
695.933
697.719
698.249
697.366
694.954
696.44
698.08
698.47
697.478
695.007
698.14
700.008
700.609
699.778
697.388
698.669
700.362
700.795
699.832
697.367
696.976
698.454
698.683
697.562
695.02
695.517
696.982
697.202
696.081
693.545
690.441
691.879
692.089
690.976
688.468
691.083
692.435
692.556
691.37
688.82
693.647
695.233
695.58
694.562
692.089
694.312
695.801
696.049
694.953
692.436
705.096
707.822
708.931
708.619
706.908
704.23
706.387
707.189
706.511
704.194
702.995
705.452
706.543
706.159
704.227
702.346
704.255
704.873
704.048
701.646
700.468
702.237
702.737
701.822
699.377
701.061
703.226
704.102
703.49
701.217
696.744
698.252
698.511
697.416
694.889
692.913
694.276
694.402
693.214
690.654
697.061
698.656
699
697.971
695.478
704.179
702.325
704.03
701.974
707.964
705.818
708.059
706.157
703.855
703.613
701.89
702.291
707.878
707.724
705.912
706.463
700.097
696.044
698.416
694.524
700.065
696.407
698.101
694.512
698.035
699.778
698.939
700.108
696.948
695.189
699.477
697.411
700.418
698.18
703.36
701.199
704.616
702.523
695.717
693.511
696.986
694.492
692.79
690.179
692.263
688.894
690.916
687.702
692.553
688.575
690.837
687.301
693.262
687.933
692.049
687.283
689.827
684.96
686.865
681.927
702.303
701.186
701.368
700.115
707.279
706.85
706.299
705.904
696.584
693.59
697.45
694.701
699.89
698.812
698.005
697.202
704.865
704.695
703.115
703.223
695.073
692.243
693.032
690.515
691.53
685.672
686.763
680.256
692.167
685.886
687.734
680.888
690.056
684.444
685.452
679.129
687.898
682.37
683.668
677.464
692.182
690.449
688.465
685.702
692.499
691.074
687.961
685.301
693.055
692.301
687.039
684.838
702.553
707.686
697.491
691.981
684.843
707.864
702.997
697.955
692.168
683.72
707.354
701.817
695.394
688.322
680.943
687.481
685.998
678.171
675.334
688.872
687.388
678.699
675.865
690.928
689.686
679.324
676.47
707.719
706.84
702.53
701.514
697.062
696.046
690.403
689.139
678.399
675.363
707.272
706.304
701.183
699.183
694.21
691.733
686.092
683.178
675.132
671.496
699.59
696.193
698.574
695.083
706.527
705.916
705.621
705.146
690.73
685.891
691.922
687.332
697.67
693.678
696.071
691.806
704.57
703.856
703.12
702.242
689.822
684.401
688.082
682.331
681.312
675.19
669.343
661.738
683.026
677.075
671.622
664.488
679.96
673.618
667.384
659.548
678.677
671.901
666.251
658.545
685.235
683.813
676.773
676.344
686.6
685.029
677.1
676.765
688.582
686.382
677.402
676.912
705.039
701.894
699.596
696.638
694.356
691.774
687.719
685.267
676.676
676.25
704.427
701.016
696.371
693.23
689.222
686.771
681.95
680.588
674.327
674.367
714.071
714.149
712.147
712.908
711.356
711.409
709.351
710.13
715.93
717.13
714.1
715.355
715.874
717.008
713.882
715.116
714.182
715.879
714.48
715.735
716.736
715.104
711.129
709.023
708.376
706.322
711.862
709.496
712.641
710.495
712.842
710.642
717.72
717.813
715.991
716.175
717.752
717.954
715.907
716.27
717.732
718.138
716.346
716.947
714.306
715.113
712.318
713.492
714.552
714.545
713.654
713.875
711.43
711.388
710.482
710.573
715.692
716
716.528
716.557
712.34
712.904
710.777
711.695
709.114
709.475
707.472
708.14
714.434
715.149
712.936
714.064
717.021
717.57
717.06
717.143
717.785
718.091
717.525
717.474
715.821
716.643
716.321
716.566
714.408
715.51
715.352
715.772
718.505
718.272
718.483
718.067
718.417
718.153
718.471
718.007
718.171
717.955
718.37
717.953
714.887
711.821
716.821
717.973
718.09
711.806
714.754
716.657
717.797
717.814
711.816
714.842
716.765
717.671
717.521
717.134
715.105
716.724
714.58
717.187
715.288
716.83
714.774
717.222
715.534
716.978
715.091
711.75
710.892
714.693
713.664
716.399
715.145
717.317
715.862
717.038
715.319
711.938
711.452
714.903
714.29
716.638
715.681
717.31
715.937
716.854
715.12
714.839
714.691
714.03
714.173
711.744
711.873
710.798
711.278
715.833
715.335
716.511
715.782
712.848
713.205
711.633
711.916
709.524
710.204
708.192
708.786
714.825
714.46
713.725
713.264
716.513
715.321
715.959
714.16
717.062
715.672
716.477
714.598
715.721
714.596
715.271
713.426
714.714
713.498
714.464
712.581
712.604
710.22
711.45
708.677
712.958
710.398
711.686
708.752
713.294
710.444
712.038
708.631
709.096
705.923
711.708
708.477
713.108
709.876
713.635
710.305
712.251
708.229
709.882
706.239
712.502
708.715
713.526
709.596
713.341
709.269
711.746
707.199
715.701
710.891
703.424
691.798
714.204
709.427
701.902
690.281
715.787
711.001
703.559
691.849
714.344
709.617
702.159
690.576
715.845
711.093
704.006
692.658
714.924
710.265
703.098
691.738
713.298
708.809
701.525
690.147
712.032
707.792
700.642
689.478
715.389
710.753
703.85
692.693
714.629
709.98
703.71
693.737
715.653
710.92
704.311
693.7
714.819
710.074
703.897
694.257
714.749
710.265
703.201
691.882
714.261
709.745
703.423
693.415
713.924
709.655
702.685
691.634
713.725
709.382
703.137
693.315
716.212
711.391
704.298
693.2
715.573
710.757
704.299
694.409
716.113
711.303
704.313
693.284
715.421
710.605
704.203
694.406
715.872
711.077
704.337
693.624
715.219
710.404
704.081
694.429
715.405
710.617
704.249
694.172
714.939
710.126
703.966
694.598
714.756
709.961
703.938
694.742
714.023
709.212
703.092
695.849
711.97
707.158
700.953
694.187
714.018
709.201
703.102
695.888
711.956
707.133
700.932
694.166
713.963
709.136
703.033
695.812
711.892
707.052
700.849
694.117
713.883
709.044
703.011
695.815
711.813
706.948
700.767
694.051
713.735
708.889
702.957
695.825
711.665
706.772
700.621
693.932
712.988
708.251
702.377
695.336
711.119
706.294
700.245
693.571
713.42
708.604
702.686
695.591
711.477
706.59
700.482
693.805
712.443
707.829
701.992
694.979
710.556
705.857
699.887
693.283
711.826
707.385
701.645
694.689
709.865
705.355
699.503
692.967
675.096
661.938
650.941
642.15
635.515
674.253
661.272
650.326
641.558
634.936
675.089
661.923
650.932
642.147
635.514
674.256
661.278
650.343
641.581
634.962
675.144
661.924
650.934
642.153
635.524
674.666
661.661
650.724
641.962
635.34
674.111
661.191
650.3
641.565
634.957
673.954
661.116
650.27
641.558
634.96
675.05
661.863
650.895
642.129
635.505
674.327
660.893
649.922
641.178
634.575
675.036
661.713
650.718
641.946
635.322
674.247
660.753
649.767
641.019
634.415
674.841
661.73
650.797
642.048
635.433
674.054
660.675
649.736
641.01
634.416
674.712
661.663
650.769
642.041
635.435
673.819
660.493
649.591
640.887
634.303
675.065
661.671
650.639
641.847
635.216
674.17
660.582
649.551
640.781
634.168
675.014
661.607
650.58
641.793
635.164
674.138
660.547
649.52
640.753
634.143
674.886
661.443
650.424
641.646
635.024
674.026
660.434
649.418
640.659
634.053
674.501
660.977
649.969
641.207
634.594
673.742
660.167
649.17
640.425
633.826
673.871
660.341
649.355
640.612
634.014
658.708
656.582
658.402
656.229
657.702
655.474
656.587
654.408
654.798
652.927
650.241
647.822
652.296
650.191
648.452
645.784
646.813
644.1
632.103
605.671
584.761
569.144
558.792
632.667
605.954
584.774
569.043
558.517
631.828
605.479
584.625
569.042
558.709
632.31
605.684
584.626
568.874
558.405
631.266
605.095
584.356
568.839
558.541
631.763
605.317
584.371
568.685
558.247
630.391
604.503
583.939
568.521
558.271
630.958
604.78
583.995
568.399
558.005
629.143
603.673
583.345
568.061
557.876
629.917
604.097
583.51
568.024
557.683
626.142
601.61
581.843
566.896
556.893
626.652
601.91
581.944
566.836
556.708
627.668
602.698
582.643
567.515
557.412
628.424
603.138
582.829
567.505
557.254
624.684
600.51
581.013
566.245
556.342
624.948
600.649
581.012
566.12
556.114
623.247
599.39
580.152
565.56
555.755
623.362
599.382
580.066
565.376
555.464
707.192
704.583
706.852
709.58
714.054
712.187
714.064
711.946
711.354
709.169
711.383
709.493
670.393
671.014
672.532
674.93
678.164
682.068
670.225
670.818
672.263
674.515
677.476
680.964
668.96
666.863
669.659
667.657
671.356
669.57
674.068
672.681
677.696
676.673
681.922
680.816
686.283
690.322
693.858
696.847
699.128
700.751
684.705
688.368
691.698
694.531
696.737
698.251
672.945
673.951
673.771
672.399
669.838
673.574
674.587
674.411
673.042
670.478
675.109
676.136
675.97
674.603
672.033
677.537
678.586
678.435
677.074
674.495
680.813
681.897
681.773
680.422
677.833
684.778
685.914
685.831
684.501
681.905
672.777
673.786
673.609
672.24
669.681
673.378
674.394
674.222
672.856
670.295
674.842
675.872
675.71
674.348
671.782
677.123
678.177
678.032
676.676
674.103
680.126
681.214
681.096
679.752
677.171
683.671
684.808
684.731
683.409
680.822
671.5
672.501
672.319
670.951
668.399
669.388
670.382
670.201
668.84
666.301
672.208
673.215
673.038
671.672
669.117
670.191
671.192
671.016
669.656
667.114
673.923
674.945
674.777
673.413
670.851
672.125
673.142
672.975
671.618
669.067
676.667
677.713
677.561
676.201
673.628
675.272
676.316
676.167
674.814
672.251
680.342
681.425
681.301
679.952
677.366
679.316
680.402
680.284
678.944
676.368
684.631
685.768
685.687
684.359
681.764
683.525
684.667
684.596
683.279
680.696
689.074
690.285
690.266
688.974
686.378
693.218
694.531
694.605
693.374
690.79
696.892
698.345
698.546
697.404
694.85
700.063
701.693
702.054
701.029
698.523
702.55
704.356
704.862
703.943
701.487
704.31
706.212
706.789
705.92
703.485
687.484
688.69
688.671
687.383
684.797
691.238
692.531
692.591
691.354
688.776
694.677
696.079
696.236
695.065
692.507
697.632
699.153
699.417
698.321
695.788
699.952
701.578
701.932
700.899
698.39
701.532
703.214
703.61
702.605
700.104
670.677
671.865
673.954
676.93
680.754
685.267
670.507
671.662
673.671
676.483
679.991
683.99
669.253
667.17
670.542
668.58
672.835
671.121
676.157
674.882
680.407
679.518
685.333
684.468
690.052
694.474
698.078
700.592
701.751
701.7
688.142
692.017
695.248
697.561
698.797
698.984
673.229
674.235
674.053
672.679
670.115
674.427
675.438
675.258
673.881
671.31
676.534
677.557
677.381
676.002
673.419
679.54
680.581
680.415
679.034
676.435
683.404
684.473
684.324
682.944
680.327
687.972
689.082
688.961
687.589
684.954
673.06
674.068
673.889
672.518
669.956
674.225
675.238
675.061
673.687
671.119
676.252
677.277
677.105
675.73
673.15
679.093
680.137
679.976
678.601
676.007
682.64
683.713
683.571
682.199
679.59
686.691
687.805
687.692
686.33
683.708
671.794
672.795
672.612
671.242
668.686
669.696
670.69
670.507
669.144
666.602
673.093
674.099
673.917
672.544
669.981
671.118
672.118
671.936
670.57
668.02
675.406
676.424
676.247
674.87
672.294
673.68
674.693
674.517
673.146
670.581
678.76
679.797
679.63
678.25
675.656
677.477
678.511
678.345
676.971
674.386
683.054
684.12
683.969
682.589
679.974
682.16
683.226
683.078
681.704
679.096
688.035
689.142
689.018
687.643
685.007
687.166
688.273
688.152
686.782
684.152
692.827
693.996
693.921
692.57
689.923
697.34
698.592
698.586
697.277
694.631
701.063
702.433
702.533
701.295
698.669
703.747
705.282
705.531
704.402
701.823
705.118
706.84
707.254
706.251
703.735
705.236
707.104
707.645
706.742
704.284
690.91
692.08
692.011
690.672
688.041
694.866
696.111
696.107
694.806
692.176
698.197
699.54
699.623
698.381
695.766
700.626
702.087
702.277
701.111
698.526
701.982
703.561
703.858
702.772
700.224
702.253
703.916
704.291
703.266
700.75
703.117
703.012
695.003
690.077
690.066
688.773
693.223
706.152
704.888
704.851
701.571
700.771
701.89
698.227
697.839
695.818
706.176
705.009
701.136
700.587
702.902
702.089
699.174
698.567
694.465
694.221
698.149
697.974
704.639
703.881
705.756
703.779
703.085
704.993
699.578
695.608
700.574
708.449
710.955
711.848
711.353
709.443
707.081
709.275
710.071
709.382
707.053
697.857
699.093
699.07
697.746
695.088
692.843
694.001
693.915
692.555
689.903
692.844
694.018
693.949
692.602
689.958
691.524
692.671
692.578
691.217
688.57
696.039
697.242
697.191
695.849
693.192
710.879
713.113
713.854
713.207
711.265
709.475
711.601
712.235
711.491
709.408
708.446
710.324
710.862
709.947
707.473
705.72
707.623
708.098
707.21
704.856
703.893
705.388
705.597
704.434
701.835
705.225
706.897
707.258
706.211
703.671
701.234
702.625
702.746
701.523
698.904
700.889
702.329
702.497
701.311
698.714
698.775
700.126
700.215
698.975
696.359
710.844
713.057
713.78
713.118
711.129
708.461
710.235
710.689
709.709
707.194
704.218
705.675
705.849
704.659
702.044
703.618
705.024
705.152
703.927
701.297
706.082
707.628
707.879
706.745
704.152
705.196
706.676
706.869
705.693
703.08
702.156
703.515
703.601
702.349
699.711
701.508
702.826
702.876
701.597
698.947
697.343
698.611
698.624
697.328
694.69
697.068
698.3
698.278
696.956
694.304
701.112
702.458
702.534
701.278
698.642
700.907
702.22
702.265
700.984
698.336
709.662
712.008
712.823
712.249
710.283
707.652
709.648
710.283
709.456
707.035
709.853
711.89
712.57
711.825
709.633
707.163
708.891
709.309
708.305
705.783
706.292
707.865
708.144
707.032
704.451
708.478
710.285
710.777
709.831
707.334
702.562
703.922
704.009
702.756
700.114
698.475
699.725
699.714
698.397
695.741
703.6
705.001
705.123
703.895
701.263
699.203
701.77
702.897
702.654
701.131
697.993
704.82
704.609
708.675
708.784
704.368
703.958
708.49
708.205
700.571
696.1
700.518
696.513
700.07
700.249
697.227
704.983
704.744
708.873
709.013
704.47
704.042
708.639
708.267
700.399
695.706
700.351
696.219
699.913
700.185
696.962
704.972
704.703
708.939
709.118
704.393
703.928
708.646
708.235
700.232
694.538
700.166
695.198
699.701
699.977
696.086
704.108
703.832
708.143
708.344
703.479
702.918
707.821
707.336
699.062
693.017
699.032
693.714
698.595
698.901
694.772
702.491
702.218
706.494
706.701
701.851
701.186
706.163
705.663
697.415
691.736
697.403
692.28
697.012
697.195
693.305
699.55
699.292
703.457
703.662
698.971
698.389
703.129
702.659
694.778
689.579
694.807
690.083
694.469
694.674
691.111
714.788
714.783
712.094
712.135
714.668
714.541
711.969
711.772
716.628
717.94
716.518
717.731
716.444
716.162
717.288
715.029
714.981
712.307
712.385
714.801
714.596
712.122
711.885
716.95
717.996
716.776
717.72
716.578
716.197
717.233
715.149
715.045
712.397
712.523
714.782
714.5
712.139
711.81
716.84
717.391
716.614
717.139
716.295
715.887
716.681
714.356
714.211
711.609
711.765
713.887
713.507
711.305
710.942
715.84
715.927
715.573
715.688
715.143
714.648
715.252
712.629
712.464
709.92
710.089
712.07
711.572
709.602
709.197
713.925
713.763
713.633
713.566
713.15
712.589
713.202
709.447
709.275
706.806
706.979
708.879
708.431
706.481
706.084
710.722
710.886
710.443
710.667
710.027
709.544
710.294
678.843
679.61
681.08
682.325
684.141
685.425
688.213
689.282
687.194
688.435
683.983
685.22
681.575
682.725
679.584
680.411
685.274
686.947
687.461
689.771
690.257
692.376
692.304
695.013
676.34
672.115
677.153
673.188
678.462
674.388
679.804
675.932
683.148
680.673
685.426
682.294
677.104
679.695
690.14
694.135
692.425
695.424
694.719
698.145
697.401
700.015
685.819
689.94
688.214
691.362
682.3
686.293
667.22
664.199
669.211
666.046
669.509
665.716
671.936
668.417
672.75
667.654
676.6
671.808
679.641
674.882
683.195
678.335
686.681
687.442
690.142
690.554
693.303
694.218
696.137
697.04
684.313
683.597
680.328
680.331
693.094
693.144
695.784
695.308
698.697
699.419
701.105
701.453
687.612
686.318
690.573
688.54
678.543
672.81
676.639
670.286
674.318
668.506
673.272
666.715
682.076
676.459
679.427
673.167
685.253
679.685
681.656
675.47
660.134
653.658
659.082
652.718
662.258
656.182
660.288
654.189
665.672
660.942
662.246
657.197
681.867
689.617
674.788
669.463
663.597
688.323
680.122
671.633
665.97
659.721
690.666
683.373
676.303
669.577
662.906
647.682
644.532
644.71
641.952
650.777
647.17
646.808
643.828
656.043
651.98
650.351
646.809
686.213
682.73
677.272
672.682
668.979
664.284
662.418
657.828
653.779
649.291
689.074
686.223
680.904
676.199
673.249
667.969
665.622
659.995
655.993
650.178
685.162
679.964
688.929
684.295
693.209
691.352
696.628
695.377
680.744
674.781
677.081
670.738
692.124
687.489
694.246
689.819
699.39
698.179
701.411
700.404
684.062
678.002
686.192
680.277
671.414
664.361
659.881
651.507
668.43
661
657.824
649.572
674.14
667.322
661.82
653.597
676.705
669.816
664.474
656.679
643.153
641.388
638.609
642.74
641.674
639.093
645.164
643.068
640.117
644.264
643.044
640.26
649.121
646.498
643.217
646.51
644.893
641.773
678.45
673.629
668.552
667.701
663.41
658.887
659.667
655.875
651.84
653.975
650.687
646.823
648.316
646.212
642.564
682.198
676.745
670.966
669.833
664.158
658.461
661.494
656.38
651.222
654.772
650.701
646.074
648.455
645.815
641.607
699.032
700.769
700.622
702.876
695.086
697.207
696.887
699.537
699.256
702.387
699.676
702.573
700.428
703.204
701.21
703.788
703.748
702.217
704.79
702.967
704.007
705.279
704.682
706.782
701.688
703.987
704.837
706.906
706.286
708.206
706.084
708.095
705.572
708.348
705.021
707.549
706.19
708.988
706.113
708.619
706.808
709.808
707.749
710.384
708.477
710.692
710.185
711.884
702.905
704.355
705.01
706.597
698.77
700.016
701.18
702.509
707.622
709.509
705.751
707.526
707.033
708.527
709.031
710.222
703.44
704.647
705.618
706.516
709.422
711.228
711.268
712.745
709.76
711.938
711.327
712.462
708.234
710.67
709.59
711.009
711.248
713.076
712.845
713.718
712.872
714.293
714.179
714.81
705.171
703.496
707.948
706.273
705.365
703.591
708.234
706.491
705.629
704.039
708.677
707.12
701.189
696.225
704.25
706.695
709.201
695.023
699.918
702.695
705.103
707.833
697.299
702.15
705.608
707.883
709.572
700.767
697.081
703.542
699.978
701.099
697.567
704.033
700.615
701.835
698.47
704.969
701.777
693.409
690.45
698.62
695.606
701.518
698.455
703.775
700.677
706.376
703.352
696.24
694.383
701.219
699.347
704.582
702.427
706.684
704.114
708.164
705.096
704.466
703.552
706.748
706.379
699.961
699.176
702.65
702.56
709.31
708.254
707.329
705.815
708.522
708.57
710.194
710.398
704.755
705.059
706.614
707.108
710.919
710.23
712.426
711.874
710.763
708.968
711.181
708.617
708.97
706.763
709.785
706.914
712.242
710.806
712.393
710.127
713.51
712.207
713.51
711.518
692.117
687.182
682.523
693.912
688.337
683.656
692.892
687.889
683.117
694.789
689.177
684.288
694.053
689.124
684.265
696.205
690.314
685.087
686.516
681.704
676.554
691.599
686.624
681.359
694.403
689.219
683.86
696.406
691.228
686.017
697.737
691.523
685.818
691.138
685.86
679.99
695.974
690.6
684.688
698.635
692.966
686.878
699.727
693.787
687.648
699.213
692.676
686.398
709.127
706.458
700.398
689.749
708.161
705.331
699.087
688.36
709.579
706.81
700.728
689.981
708.99
705.987
699.679
688.913
710.151
707.24
701.392
690.947
710.417
707.203
700.983
690.313
710.278
706.751
700.102
689.18
710.936
707.043
700.124
689.12
711.493
708.093
701.989
691.4
711.317
707.709
702.084
692.534
710.548
707.453
701.915
692.081
710.272
706.977
701.737
692.739
712.269
708.566
701.997
691.018
712.231
708.347
702.402
692.621
713.067
709.066
702.267
691.334
713.036
708.907
702.787
693.039
708.95
706.53
700.99
690.95
707.594
705.483
700.713
691.922
709.086
706.592
701.125
691.155
707.663
705.465
700.719
692.016
709.275
706.644
701.338
691.647
707.969
705.577
700.816
692.212
709.347
706.535
701.471
692.333
708.261
705.659
700.946
692.573
709.234
706.229
701.375
692.985
705.518
703.676
699.345
693.015
703.188
701.515
697.104
691.17
705.781
703.811
699.447
693.136
703.461
701.639
697.171
691.215
706.274
704.069
699.601
693.245
703.955
701.875
697.296
691.323
706.986
704.459
699.894
693.502
704.622
702.217
697.5
691.475
707.899
704.97
700.248
693.781
705.397
702.61
697.721
691.627
709.632
705.963
700.735
694.016
707.366
703.757
698.445
692.122
708.781
705.462
700.478
693.879
706.388
703.178
698.079
691.881
710.4
706.431
700.973
694.133
708.273
704.304
698.781
692.386
711.142
706.916
701.302
694.401
709.11
704.84
699.136
692.669
673.892
661.204
650.484
641.845
635.278
673.088
660.551
649.871
641.25
634.694
673.998
661.258
650.518
641.871
635.301
673.263
660.67
649.964
641.33
634.769
674.181
661.34
650.57
641.912
635.336
673.84
661.155
650.409
641.753
635.179
673.536
660.839
650.081
641.419
634.845
673.737
660.983
650.188
641.504
634.919
674.305
661.41
650.614
641.942
635.361
673.667
660.497
649.676
641.015
634.449
674.156
661.182
650.389
641.727
635.153
673.458
660.281
649.475
640.825
634.265
674.326
661.416
650.603
641.919
635.333
673.604
660.404
649.568
640.899
634.33
674.534
661.555
650.703
641.998
635.402
673.663
660.399
649.534
640.849
634.274
673.816
660.923
650.178
641.543
634.982
672.889
659.825
649.088
640.477
633.935
673.836
660.897
650.139
641.499
634.936
672.903
659.811
649.064
640.449
633.907
673.827
660.807
650.03
641.384
634.82
672.901
659.764
649.004
640.383
633.84
673.557
660.414
649.62
640.975
634.415
672.749
659.576
648.805
640.182
633.638
673.001
659.823
649.034
640.399
633.849
631.705
629.888
632.617
630.75
634.215
632.137
636.269
633.816
638.371
635.498
641.795
638.516
640.073
636.845
643.462
640.323
645.17
642.325
612.698
592.088
574.87
561.481
552.235
612.966
592.22
574.812
561.341
551.949
613.118
592.31
575.009
561.58
552.32
613.339
592.381
574.939
561.379
552.004
613.919
592.754
575.292
561.785
552.491
614.113
592.809
575.211
561.575
552.168
615.009
593.391
575.709
562.088
552.744
615.111
593.391
575.59
561.85
552.395
616.293
594.2
576.255
562.488
553.078
616.2
594.078
576.055
562.194
552.685
619.072
596.188
577.699
563.603
554.045
618.747
595.88
577.358
563.209