/*--------------------------------*- C++ -*----------------------------------*\
  =========                 |
  \\      /  F ield         | OpenFOAM: The Open Source CFD Toolbox
   \\    /   O peration     | Website:  https://openfoam.org
    \\  /    A nd           | Version:  13
     \\/     M anipulation  |
\*---------------------------------------------------------------------------*/
FoamFile
{
    format      ascii;
    class       volScalarField;
    location    "389.831886";
    object      T;
}
// * * * * * * * * * * * * * * * * * * * * * * * * * * * * * * * * * * * * * //

dimensions      [0 0 0 1 0 0 0];

internalField   nonuniform List<scalar> 
5712
(
1074.55
1077.58
1083
1086.72
1088.09
1092.01
1088.13
1091.79
1077.56
1083.29
1076.58
1081.92
1073.06
1077.65
1067.86
1071.57
1098.64
1109.68
1105.7
1119.58
1100.59
1113.8
1108.42
1124.51
1078.01
1079.78
1080.32
1080.13
1086.82
1087.76
1089.74
1088.35
1104.67
1098.29
1114.85
1106.22
1097.14
1100.86
1107.63
1115.35
1123.96
1128.19
1111.77
1119.66
1129.59
1134
1105.23
1111.12
1117.63
1120.84
1099.6
1104.24
1082.02
1073.53
1076.45
1065.37
1089.5
1079.69
1083.99
1071.96
1100.38
1089.19
1101.13
1086.45
1099.72
1083.43
1101.83
1084.49
1119.83
1127.15
1128.19
1133.89
1124.79
1132.1
1133.39
1139.54
1122.35
1127.3
1115.47
1122.11
1133.28
1137.9
1137.11
1140.32
1138.66
1143.83
1142.56
1146.44
1126.54
1130.56
1129.97
1132.57
1114.76
1098.03
1117.98
1102.2
1111.13
1096.76
1114.64
1100.24
1117.09
1099.06
1120.28
1103.7
1119.65
1100.73
1121.81
1104.79
1077.3
1077.31
1075.02
1077.77
1084.23
1082.69
1080.51
1082.42
1093.81
1091.24
1088.35
1089.42
1109.48
1113.63
1106.92
1106.95
1096
1108.95
1103.92
1099.74
1102.62
1095.6
1120.66
1117.17
1114.97
1110.66
1098.63
1079.44
1078.13
1086.34
1088.13
1082.64
1080.21
1088.85
1090.21
1088.67
1084.68
1092.83
1092.83
1105.38
1097.94
1100.36
1091.39
1098.82
1091.35
1101.48
1096.45
1096.56
1093.85
1119.85
1117.45
1114.95
1108.62
1112.2
1104.87
1107.94
1100.55
1097.34
1090.54
1124.75
1110.32
1130.73
1115.74
1132.71
1128.37
1139.73
1134.74
1122
1104.37
1117.74
1101.21
1134.44
1118.97
1136.12
1120.01
1143.47
1137.48
1145.28
1138.43
1125.17
1106.69
1126.58
1107.49
1111.68
1094.36
1097.32
1082.03
1109.39
1092.85
1096.57
1082.46
1113.59
1096.03
1098.08
1082.47
1115.35
1096.6
1099.74
1083.99
1071.73
1060.88
1041.67
1079.92
1068.71
1049.52
1073.76
1063.14
1044.01
1082.23
1071.22
1051.57
1078.4
1068.87
1049.91
1084.48
1073
1052.39
1090.69
1081.28
1060.77
1082.37
1073.4
1053.89
1083.05
1073.14
1053.27
1089.39
1079.2
1058.92
1083.03
1070.2
1047.87
1110.29
1097.43
1072.81
1095.48
1082.08
1058.07
1090.9
1077.71
1054.38
1086.61
1073.21
1050.08
1072.12
1057.81
1034.32
1107.34
1118.97
1114.13
1128.45
1103.51
1117.01
1111.2
1127.5
1093.41
1103.91
1095.59
1103.93
1101.75
1110.09
1104.55
1110.71
1119.39
1113.28
1128.74
1120.78
1117.53
1121.08
1132.4
1136.19
1132.46
1136.72
1119.05
1123.63
1130.83
1133.41
1118.69
1122.17
1119.17
1131.66
1112.39
1121.51
1123.22
1134.83
1117.56
1125.79
1128.88
1139.46
1128.95
1135.6
1125.82
1129.3
1126.77
1127.97
1131.88
1141.17
1139.21
1147.41
1128.89
1136.9
1137.11
1144.13
1140.4
1149.55
1134.64
1144.83
1143.7
1151.06
1147.18
1153.38
1142.15
1148.28
1145.94
1150.86
1143.83
1152.4
1146.76
1154.27
1142.21
1145.2
1150.13
1148.59
1139.45
1144.46
1146.88
1146.51
1143.67
1144.97
1152.17
1149.84
1145.51
1145.27
1153.55
1150.6
1117.83
1114.74
1134.65
1132.29
1120.38
1116.65
1136.41
1133.57
1124.75
1121.29
1138.97
1136.33
1124.26
1118.91
1128.64
1135.93
1142.49
1114.4
1119.13
1122.08
1130.99
1139.6
1126.14
1132.39
1138.44
1142.64
1143.88
1109.16
1100.85
1125.71
1115.87
1111.52
1103.73
1127.9
1118.9
1116.67
1109.66
1131.76
1124
1111.56
1105.23
1117.43
1111.24
1122.37
1116.29
1130.14
1124.13
1137.06
1129.94
1126.23
1125.9
1132.81
1132.27
1138.6
1137.08
1141.87
1138.1
1141.33
1133.81
1144.36
1144.68
1150.1
1150.2
1139.43
1139.49
1146.23
1145.93
1151.61
1150.38
1147.26
1145.96
1152.92
1152.43
1154.47
1153.2
1149.53
1148.53
1151.31
1149.49
1153.94
1152.27
1155.15
1152.74
1150.66
1146.57
1145.13
1136.68
1147.57
1143.12
1143.69
1134.96
1152.32
1148.1
1145.84
1137.25
1153.2
1148.43
1146.56
1138.2
1088.62
1075.08
1054.46
1098.3
1083.09
1062.37
1092.41
1079.08
1058.48
1102.58
1087.77
1066.45
1100.29
1088.44
1068
1109.16
1094.08
1071.59
1098.99
1089.42
1068.47
1105.05
1094.97
1073.91
1109.38
1097.95
1076.29
1116.16
1104.39
1082.81
1115.1
1099.46
1075.37
1121.07
1108.72
1083.86
1127.44
1115.05
1090.21
1130.98
1117.75
1092.42
1129.43
1115.45
1090.22
1117.77
1102.29
1076.51
1135.95
1134.17
1127.36
1112.99
1125.25
1123.57
1117.25
1104.28
1137.98
1135.72
1128.55
1113.51
1128.55
1126.42
1119.55
1105.63
1140.67
1137.58
1130.5
1115.57
1136.42
1133.58
1126.33
1111.53
1128.58
1125.45
1118.7
1105.59
1125.96
1122.35
1116.22
1104.74
1142.87
1138.63
1131.22
1116.1
1141.17
1134.94
1128.37
1113.99
1142.04
1137.69
1130.99
1116.76
1139.34
1133.27
1127.24
1113.54
1142.34
1138.07
1130.25
1114.81
1142.31
1135.97
1128.85
1113.61
1141.92
1137.48
1129.91
1115.25
1142.96
1136.49
1129.16
1113.76
1139.26
1137.13
1130.38
1115.34
1135.35
1132.43
1126.77
1112.22
1139.65
1137.02
1130.29
1115.25
1135.13
1131.77
1126.25
1111.98
1139.82
1136.35
1129.84
1115.19
1135.3
1131.17
1125.69
1111.58
1139.06
1134.32
1128.28
1114.21
1135.15
1130.15
1124.84
1111.03
1136.77
1130.85
1125.41
1112.13
1125.37
1121.43
1116.66
1101.76
1110.63
1105.9
1099.29
1081.87
1126.05
1121.72
1116.85
1102
1111.28
1106.08
1099.33
1081.84
1127.08
1122.01
1116.99
1102.06
1112.16
1106.18
1099.3
1081.94
1128.49
1122.49
1117.24
1102.34
1113.34
1106.43
1099.33
1081.93
1129.98
1123.02
1117.44
1102.56
1114.35
1106.46
1099.12
1081.59
1131.19
1123.1
1117.15
1102.02
1116.81
1107.6
1099.77
1081.85
1130.73
1123.07
1117.29
1102.28
1115.79
1107.12
1099.53
1081.86
1131.31
1122.94
1117.01
1101.92
1117.1
1107.59
1099.76
1082.06
1131.49
1122.96
1117
1101.97
1117.22
1107.55
1099.67
1082.04
1094.08
1083.43
1075
1063.97
1043.5
1087.64
1077.57
1069.29
1058.35
1038.04
1094.25
1083.52
1075.06
1064.03
1043.56
1088.08
1077.93
1069.62
1058.68
1038.35
1094.88
1083.85
1075.35
1064.3
1043.82
1092.2
1081.82
1073.45
1062.44
1042.01
1088.48
1078.26
1069.93
1058.98
1038.65
1088.78
1078.61
1070.3
1059.35
1039.01
1094.93
1083.85
1075.34
1064.29
1043.81
1087.64
1075.6
1067.04
1056.09
1035.84
1093.7
1082.24
1073.69
1062.66
1042.23
1086.18
1074.02
1065.46
1054.53
1034.32
1094.25
1083.29
1074.8
1063.77
1043.31
1086.25
1074.24
1065.7
1054.78
1034.58
1094.59
1083.61
1075.12
1064.08
1043.62
1085.48
1073.44
1064.9
1054
1033.81
1092.5
1081.04
1072.51
1061.5
1041.1
1083.52
1071.38
1062.86
1051.98
1031.84
1092.19
1080.64
1072.1
1061.09
1040.7
1083.37
1071.19
1062.66
1051.78
1031.65
1091.23
1079.47
1070.91
1059.91
1039.56
1082.64
1070.4
1061.86
1050.99
1030.88
1087.8
1075.67
1067.09
1056.15
1035.89
1080.57
1068.27
1059.76
1048.91
1028.85
1082.33
1070.11
1061.58
1050.71
1030.6
1075.13
1074.34
1075.73
1074.9
1076.7
1075.38
1077.32
1075.33
1076.83
1074.39
1075.89
1071.56
1075.81
1072.07
1076.19
1071.75
1076.55
1072.24
1062.08
1052.91
1045.38
1034.98
1013.05
1060.03
1050.03
1041.92
1031.17
1009.1
1062.14
1052.89
1045.36
1034.96
1013.03
1060.13
1050.08
1041.97
1031.14
1009.02
1062.32
1052.97
1045.42
1035.02
1013.1
1060.26
1050.12
1042
1031.17
1009.06
1062.34
1052.95
1045.4
1035
1013.08
1060.26
1050.12
1042
1031.15
1009.04
1061.9
1052.6
1045.08
1034.71
1012.84
1059.97
1049.97
1041.87
1031.04
1008.95
1061.77
1052.69
1045.2
1034.83
1013.07
1059.26
1049.73
1041.73
1030.94
1008.98
1061.63
1052.5
1045
1034.64
1012.84
1059.48
1049.81
1041.78
1030.98
1008.93
1061.97
1052.87
1045.36
1034.99
1013.25
1059.37
1049.86
1041.85
1031.07
1009.19
1062.1
1052.93
1045.4
1035.02
1013.29
1059.52
1049.9
1041.88
1031.09
1009.2
1122.35
1121.99
1114.35
1115.42
1085.39
1088.34
1093.19
1096.68
1095.63
1099.42
1090.85
1094.56
1079.54
1085.29
1082.04
1087.31
1080.58
1084.98
1076.46
1080.06
1129.08
1123.03
1105.88
1097.79
1079.84
1087.64
1098.4
1121.97
1113.87
1116.52
1102.77
1079.28
1105.23
1106.84
1084.98
1095.46
1089.91
1079.19
1126.08
1119.99
1108.99
1110.73
1115.58
1116.18
1112.57
1109.06
1081.9
1092.29
1099.19
1103.89
1128.86
1122.29
1125.76
1120.39
1119.12
1122.02
1112.12
1101.97
1112.62
1145.96
1150.18
1148.54
1140.83
1123.68
1139.96
1145.52
1144.56
1136.65
1118.5
1123.34
1129.34
1128.36
1120.03
1101.59
1115.05
1120.97
1119.99
1111.75
1093.5
1096.69
1102.49
1101.54
1093.5
1075.69
1104.67
1110.51
1109.54
1101.42
1083.42
1115.69
1121.63
1120.66
1112.41
1094.16
1138.75
1144.02
1143.63
1136.98
1120.66
1130.87
1136.69
1136.75
1130.25
1113.66
1133.76
1139.91
1139.56
1132
1113.96
1119.93
1125.81
1125.61
1118.76
1101.87
1095.6
1101.53
1101.4
1094.8
1078.38
1122.64
1128.73
1127.97
1119.92
1101.66
1124.13
1130.3
1129.81
1122.07
1103.99
1101.83
1107.85
1107.34
1099.75
1082.13
1112.68
1118.67
1117.84
1109.78
1091.68
1106.98
1112.96
1112.23
1104.32
1086.42
1096.06
1101.91
1101.08
1093.17
1075.44
1143.19
1148.01
1147.02
1139.75
1122.81
1137.45
1143.52
1142.85
1134.9
1116.54
1126.5
1132.58
1131.73
1123.55
1105.14
1128.28
1134.35
1133.45
1125.17
1106.68
1133.17
1139.27
1138.43
1130.23
1111.72
1133.83
1139.92
1139.01
1130.69
1112.09
1130.18
1136.23
1135.27
1126.9
1108.32
1126.6
1132.64
1131.68
1123.36
1104.86
1098.82
1104.65
1103.74
1095.71
1077.87
1109.43
1115.34
1114.39
1106.23
1088.13
1116.5
1122.49
1121.59
1113.42
1095.2
1121.3
1127.31
1126.38
1118.12
1099.76
1145.85
1150.32
1148.9
1141.3
1124.13
1139.46
1145.22
1144.32
1136.32
1117.99
1143.27
1148.54
1147.54
1139.73
1121.67
1137.91
1143.9
1143
1134.79
1116.24
1136.76
1142.83
1141.92
1133.62
1114.99
1139.46
1145.45
1144.72
1136.73
1118.32
1129.72
1135.78
1134.83
1126.48
1107.92
1119.35
1125.33
1124.37
1116.09
1097.76
1130.21
1136.29
1135.36
1127.04
1108.49
1139.69
1126.36
1141.36
1127.79
1144.73
1130.78
1143.08
1129.67
1143.88
1146.04
1134.12
1141.71
1147.7
1150.21
1138.24
1146.47
1134.62
1127.31
1121.54
1114.28
1136.48
1130.31
1123.12
1116.73
1129.85
1138.86
1136.56
1141.4
1133.83
1124.05
1123.77
1120.53
1136.34
1132.14
1128.18
1124.92
1141.62
1137.86
1120.09
1116.08
1130.15
1125.01
1113.7
1109.09
1116.69
1101.07
1103.62
1088.21
1120.96
1104.09
1106.83
1091.02
1128.04
1109.24
1119.99
1101.28
1111.19
1092.59
1105.7
1087.59
1145.45
1144.14
1143.95
1143.74
1150.47
1150.2
1149.07
1149.85
1137.41
1135.89
1139.38
1136.41
1141.75
1143.03
1139.67
1141.89
1147.01
1149.15
1145.06
1148.06
1134.81
1135.14
1132.52
1133.99
1127.68
1108.26
1125.08
1108.07
1130.21
1111.08
1125.89
1109.2
1124.52
1105.18
1124.18
1107.01
1122
1102.73
1123.03
1105.86
1123.91
1126.87
1108.39
1112.17
1127.3
1129.16
1110.33
1113.28
1131.37
1132.31
1112.73
1114.7
1145.51
1150.53
1139.85
1131.55
1113.32
1150.29
1145.64
1140.16
1132.42
1114.84
1150.03
1144.17
1136.7
1126.67
1110.68
1126.59
1120.85
1112.72
1106.1
1128.45
1122.75
1113.32
1106.88
1131.07
1125.59
1113.87
1107.38
1148.82
1143.44
1143.71
1137.66
1137.93
1132.18
1129.9
1124.43
1112.13
1104.95
1148.51
1142.38
1141.37
1132.32
1133.25
1123.29
1123.15
1113.33
1107.5
1098.22
1139.13
1123.23
1138.44
1122.52
1148.17
1140.85
1147.76
1140.95
1128.77
1110.46
1129.69
1112
1138.25
1122.2
1137.27
1120.95
1147.34
1140.4
1146.43
1139.27
1128.62
1109.71
1127.63
1108.39
1117.05
1099.15
1101.34
1085.5
1118.51
1100.87
1103.12
1087.99
1116.45
1098.53
1100.26
1084.32
1116.28
1097.39
1100.41
1084.55
1108.82
1093.67
1092.17
1077.08
1111.91
1096.08
1093.32
1077.79
1115.17
1097.44
1093.94
1076.17
1133.04
1113
1126.25
1106.41
1121.37
1102.18
1113.43
1093.31
1090.74
1070.05
1130.79
1108.53
1116.36
1093.81
1106.45
1084.44
1095.98
1073.92
1077.24
1054.56
1151.09
1153.92
1141.38
1149.55
1150.05
1152.94
1140.55
1149.11
1146.62
1146.32
1133.7
1133.62
1148.52
1148.3
1135.44
1135.46
1142.62
1151.35
1148.8
1153.65
1150.65
1141.57
1144.17
1139.95
1144.29
1140.51
1132.69
1128.19
1142.35
1137.23
1131.08
1126.42
1145.58
1144.01
1133.02
1131.96
1147.83
1146.09
1135.11
1134.62
1151.38
1149.22
1144.26
1142.92
1135.13
1133.95
1129.9
1129.57
1155.5
1156.36
1153.82
1156.2
1153.9
1154.35
1152.4
1154.07
1153.56
1156.55
1155.43
1156.57
1151.54
1155.63
1149.55
1154.77
1150.31
1153.4
1148.38
1152.42
1151.05
1156.11
1148.97
1155.41
1152.37
1150.17
1155.26
1151.4
1154.39
1151.33
1155.09
1150.76
1149.51
1147.98
1154.96
1151.44
1147.35
1146.27
1154.41
1151.12
1151.22
1151.12
1149.05
1147.74
1152.32
1151.72
1149.74
1147.89
1153.6
1152.98
1150.44
1148.56
1155.84
1154.08
1155.87
1154.81
1150.81
1153.69
1155.42
1155.22
1153.94
1149.06
1154.11
1155.99
1156.05
1154.39
1149.57
1146.19
1135.87
1141.02
1128.93
1147.61
1138.19
1142.07
1130.79
1149.9
1141.98
1143.87
1133.95
1152.55
1147.61
1154.41
1149.36
1153.86
1148.24
1151.76
1145
1145.56
1136.74
1153.27
1148.82
1155.2
1150.78
1154.96
1149.82
1152.56
1145.77
1146.46
1137.46
1156.34
1153.27
1156.52
1154.62
1154.02
1150.71
1153.83
1151.49
1156.6
1153.68
1156.13
1151.96
1156.11
1154.58
1155.43
1153.82
1153.2
1151.14
1152.4
1150.25
1156.49
1153.93
1155.93
1153.23
1154.09
1148.78
1147.14
1138.18
1153.5
1146.82
1146.9
1137.22
1154.14
1149.3
1146.96
1138.11
1153.79
1148.81
1146.92
1138.48
1121.08
1104.78
1109.01
1090.5
1124.89
1107.84
1111.68
1092.75
1129.91
1111.4
1115.96
1094.81
1137.7
1117.78
1139.25
1119.5
1137.97
1118.43
1133.53
1113.11
1119.42
1095.93
1139.18
1117.01
1141.14
1118.93
1139.26
1116.65
1133.02
1109.84
1118.8
1093.76
1140.33
1135.73
1127.97
1113.27
1129.14
1124.98
1117.81
1104.53
1141.96
1137.16
1129.11
1113.76
1131.9
1127.64
1120.05
1105.86
1144.05
1138.83
1131.01
1115.8
1139.08
1134.58
1126.75
1111.73
1130.3
1126.1
1118.97
1105.72
1126.56
1122.58
1116.32
1104.79
1144.81
1139.41
1131.57
1116.27
1142.44
1135.5
1128.65
1114.14
1144.65
1138.71
1131.45
1116.97
1141.21
1134.07
1127.62
1113.74
1143.55
1138.56
1130.47
1114.92
1143.06
1136.3
1129.02
1113.71
1142.33
1137.65
1129.99
1115.29
1143.2
1136.61
1129.22
1113.8
1144.15
1138.84
1131.06
1115.65
1140.56
1134.26
1127.5
1112.56
1144.18
1138.63
1130.93
1115.54
1139.99
1133.5
1126.94
1112.31
1143.73
1137.78
1130.43
1115.46
1139.46
1132.71
1126.33
1111.88
1142.17
1135.54
1128.8
1114.45
1138.6
1131.49
1125.4
1111.29
1139.21
1131.87
1125.88
1112.36
1130.59
1123.3
1117.39
1102.14
1115.7
1107.75
1100.03
1082.27
1130.9
1123.49
1117.56
1102.37
1115.93
1107.83
1100.04
1082.23
1131.23
1123.58
1117.63
1102.4
1116.11
1107.74
1099.95
1082.29
1131.75
1123.81
1117.8
1102.64
1116.46
1107.74
1099.9
1082.25
1132.32
1124.05
1117.91
1102.82
1116.66
1107.52
1099.6
1081.87
1132.26
1123.61
1117.41
1102.19
1117.87
1108.15
1100.04
1082.02
1132.35
1123.83
1117.66
1102.5
1117.41
1107.91
1099.91
1082.1
1131.92
1123.24
1117.17
1102.02
1117.71
1107.91
1099.92
1082.17
1131.69
1123.06
1117.06
1102
1117.42
1107.65
1099.73
1082.07
1094.21
1083.5
1075.03
1063.99
1043.52
1087.76
1077.64
1069.32
1058.37
1038.06
1094.37
1083.58
1075.1
1064.05
1043.57
1088.19
1077.99
1069.66
1058.7
1038.37
1094.98
1083.91
1075.38
1064.32
1043.83
1092.29
1081.87
1073.47
1062.46
1042.02
1088.55
1078.29
1069.95
1059
1038.66
1088.81
1078.63
1070.31
1059.35
1039.01
1095
1083.89
1075.36
1064.3
1043.82
1087.71
1075.64
1067.06
1056.11
1035.85
1093.8
1082.29
1073.72
1062.67
1042.24
1086.27
1074.07
1065.48
1054.55
1034.33
1094.31
1083.32
1074.82
1063.78
1043.32
1086.29
1074.26
1065.71
1054.79
1034.59
1094.61
1083.62
1075.13
1064.09
1043.62
1085.5
1073.44
1064.91
1054
1033.82
1092.64
1081.11
1072.55
1061.53
1041.12
1083.66
1071.46
1062.9
1052.01
1031.86
1092.32
1080.71
1072.14
1061.12
1040.72
1083.5
1071.26
1062.7
1051.81
1031.66
1091.34
1079.53
1070.94
1059.94
1039.58
1082.76
1070.46
1061.9
1051.02
1030.9
1087.9
1075.72
1067.12
1056.17
1035.9
1080.68
1068.33
1059.79
1048.93
1028.86
1082.42
1070.16
1061.61
1050.73
1030.61
1087.02
1084.31
1086.67
1084
1085.93
1083.06
1084.51
1081.52
1082.06
1079.26
1078.2
1073.96
1079.42
1075.76
1077.48
1073.06
1076.97
1072.66
1066.61
1054.86
1046.45
1035.7
1013.63
1064.58
1052.01
1043
1031.9
1009.69
1066.4
1054.76
1046.39
1035.66
1013.6
1064.38
1051.97
1043.02
1031.85
1009.59
1066.09
1054.68
1046.39
1035.68
1013.64
1064.02
1051.85
1042.98
1031.84
1009.6
1065.48
1054.44
1046.26
1035.6
1013.57
1063.45
1051.66
1042.88
1031.76
1009.53
1064.34
1053.83
1045.82
1035.23
1013.27
1062.58
1051.28
1042.64
1031.58
1009.39
1062.97
1053.35
1045.61
1035.14
1013.32
1060.61
1050.47
1042.19
1031.28
1009.26
1063.42
1053.44
1045.58
1035.06
1013.19
1061.48
1050.85
1042.41
1031.43
1009.3
1062.66
1053.26
1045.62
1035.18
1013.41
1060.14
1050.29
1042.13
1031.28
1009.36
1062.33
1053.05
1045.48
1035.08
1013.34
1059.77
1050.04
1041.97
1031.16
1009.26
1127.31
1127.18
1130.52
1130.88
1146.29
1133.07
1148.2
1134.69
1146.91
1132.95
1145.16
1131.79
1082.05
1082.46
1083.43
1085.21
1088.19
1092.62
1074.79
1075.22
1076.15
1077.73
1080.11
1083.27
1075.78
1061.48
1076.22
1061.95
1077.29
1063.17
1079.51
1066
1083.56
1070.62
1089.8
1076.59
1098.15
1103.45
1107.75
1110.95
1113.31
1114.69
1086.98
1090.62
1093.78
1096.25
1097.99
1098.95
1098.9
1104.67
1103.7
1095.64
1077.79
1099.33
1105.1
1104.13
1096.06
1078.21
1100.32
1106.1
1105.12
1097.05
1079.17
1102.15
1107.95
1106.97
1098.87
1080.94
1105.21
1111.04
1110.05
1101.92
1083.92
1109.75
1115.62
1114.64
1106.45
1088.33
1091.49
1097.2
1096.23
1088.25
1070.57
1091.93
1097.64
1096.68
1088.69
1071
1092.88
1098.61
1097.64
1089.64
1071.93
1094.51
1100.25
1099.28
1091.26
1073.51
1096.94
1102.71
1101.74
1093.69
1075.88
1100.19
1105.99
1105.02
1096.94
1079.04
1092.49
1098.2
1097.24
1089.25
1071.56
1077.87
1083.47
1082.52
1074.69
1057.34
1092.93
1098.65
1097.69
1089.7
1071.99
1078.35
1083.95
1083.01
1075.17
1057.81
1094.03
1099.76
1098.79
1090.79
1073.06
1079.6
1085.22
1084.27
1076.42
1059.02
1096.31
1102.06
1101.09
1093.06
1075.27
1082.5
1088.15
1087.2
1079.31
1061.85
1100.47
1106.26
1105.28
1097.2
1079.31
1087.24
1092.93
1091.98
1084.04
1066.45
1106.86
1112.71
1111.73
1103.58
1085.53
1093.35
1099.1
1098.14
1090.13
1072.4
1115.42
1121.35
1120.36
1112.11
1093.85
1120.85
1126.83
1125.84
1117.54
1099.16
1125.22
1131.23
1130.25
1121.93
1103.47
1128.42
1134.42
1133.45
1125.16
1106.68
1130.7
1136.61
1135.65
1127.42
1108.98
1131.99
1137.82
1136.84
1128.65
1110.25
1103.99
1109.83
1108.85
1100.73
1082.74
1107.72
1113.59
1112.62
1104.46
1086.39
1110.94
1116.83
1115.86
1107.68
1089.54
1113.44
1119.33
1118.36
1110.18
1092.01
1115.17
1121.04
1120.07
1111.9
1093.72
1116.1
1121.94
1120.97
1112.81
1094.62
1082.05
1082.46
1083.4
1085.12
1087.97
1092.27
1074.79
1075.21
1076.13
1077.67
1079.98
1083.1
1075.79
1061.49
1076.22
1061.96
1077.25
1063.13
1079.36
1065.78
1083.15
1069.96
1089.08
1075.69
1097.76
1103.16
1107.66
1111.12
1113.57
1114.82
1086.8
1090.5
1093.76
1096.34
1098.11
1099.01
1098.91
1104.67
1103.7
1095.64
1077.79
1099.33
1105.1
1104.12
1096.06
1078.2
1100.29
1106.07
1105.09
1097.02
1079.14
1102.05
1107.85
1106.86
1098.77
1080.84
1104.98
1110.8
1109.81
1101.68
1083.68
1109.38
1115.24
1114.25
1106.06
1087.95
1091.49
1097.2
1096.23
1088.25
1070.57
1091.92
1097.64
1096.67
1088.68
1070.99
1092.86
1098.58
1097.61
1089.61
1071.9
1094.44
1100.18
1099.21
1091.19
1073.43
1096.81
1102.57
1101.6
1093.55
1075.74
1100.01
1105.8
1104.82
1096.73
1078.83
1092.49
1098.21
1097.24
1089.25
1071.56
1077.87
1083.47
1082.53
1074.7
1057.35
1092.94
1098.66
1097.69
1089.7
1071.99
1078.35
1083.95
1083.01
1075.17
1057.81
1094
1099.73
1098.76
1090.75
1073.02
1079.55
1085.17
1084.21
1076.37
1058.97
1096.16
1101.91
1100.93
1092.9
1075.12
1082.27
1087.91
1086.95
1079.07
1061.61
1100.04
1105.82
1104.84
1096.76
1078.88
1086.56
1092.24
1091.28
1083.34
1065.77
1106.12
1111.96
1110.97
1102.82
1084.78
1092.42
1098.16
1097.19
1089.18
1071.47
1115
1120.91
1119.91
1111.65
1093.4
1120.52
1126.47
1125.46
1117.14
1098.76
1125.1
1131.07
1130.05
1121.7
1103.22
1128.56
1134.5
1133.49
1125.15
1106.64
1130.93
1136.8
1135.79
1127.51
1109.04
1132.1
1137.91
1136.91
1128.7
1110.3
1103.79
1109.62
1108.63
1100.5
1082.51
1107.58
1113.43
1112.44
1104.27
1086.19
1110.9
1116.76
1115.77
1107.57
1089.42
1113.5
1119.37
1118.37
1110.17
1091.98
1115.27
1121.12
1120.12
1111.93
1093.74
1116.15
1121.98
1121
1112.83
1094.64
1129.58
1123.3
1105.12
1096.96
1078.03
1086.3
1096.84
1128.16
1120.06
1116.82
1097.29
1100.32
1100.65
1089.48
1081.38
1074.77
1130.09
1120.42
1106.02
1108.92
1114.55
1115.57
1112.21
1107.71
1079.06
1089.92
1095.29
1101.47
1130.36
1122.92
1127.66
1120.89
1119.21
1122.79
1111.28
1100.2
1111.44
1146.42
1150.54
1148.82
1141.05
1123.85
1140.2
1145.72
1144.71
1136.77
1118.59
1122.54
1128.5
1127.48
1119.13
1100.7
1114.19
1120.09
1119.09
1110.85
1092.61
1094.82
1100.57
1099.59
1091.55
1073.77
1103.28
1109.1
1108.11
1099.98
1082.01
1114.05
1119.95
1118.94
1110.69
1092.46
1144.17
1147.7
1145.7
1137.65
1120.86
1135.85
1139.09
1136.72
1128.22
1110.94
1133.48
1138.77
1137.44
1129.07
1110.62
1113.32
1116.9
1114.54
1105.98
1088.29
1117.36
1123.06
1121.91
1113.58
1095.28
1117.33
1122.7
1121.39
1113.04
1094.78
1106.4
1112.12
1111.05
1102.85
1084.8
1098.06
1103.65
1102.56
1094.44
1076.58
1091.4
1097.03
1096
1087.97
1070.26
1146.75
1150.65
1148.79
1140.74
1123.48
1137.57
1143.21
1142.05
1133.69
1115.13
1123.28
1129.1
1128.01
1119.65
1101.22
1126.31
1132.22
1131.16
1122.77
1104.26
1131.94
1137.79
1136.69
1128.28
1109.69
1133.1
1139.05
1137.98
1129.55
1110.91
1129.74
1135.74
1134.7
1126.29
1107.7
1125.15
1131.1
1130.06
1121.68
1103.2
1095.85
1101.58
1100.58
1092.51
1074.71
1106.97
1112.79
1111.79
1103.61
1085.55
1112.4
1118.22
1117.17
1108.92
1090.73
1118.75
1124.64
1123.61
1115.3
1096.96
1147.22
1151.4
1149.72
1141.89
1124.6
1140.03
1145.68
1144.66
1136.56
1118.17
1144.97
1149.85
1148.43
1140.26
1122.03
1138.34
1144.21
1143.18
1134.84
1116.23
1136.76
1142.7
1141.65
1133.23
1114.55
1140.03
1145.73
1144.66
1136.37
1117.81
1128.79
1134.77
1133.73
1125.32
1106.74
1117.48
1123.39
1122.37
1114.08
1095.77
1128.92
1134.86
1133.81
1125.4
1106.84
1070.69
1088.41
1096.48
1097.63
1092.19
1075.76
1144.75
1145.7
1149.15
1148.09
1146.78
1147.1
1150.48
1151.14
1139.72
1132.98
1140.89
1135.32
1141.9
1142.75
1137.9
1146.63
1147.07
1150.5
1149.92
1147.46
1147.17
1151.1
1151.07
1141.74
1135.83
1142.37
1137.31
1142.57
1142.91
1138.86
1148.23
1148.06
1151.42
1151.43
1147.54
1146.35
1151.14
1150.2
1143.41
1136.1
1143.36
1136.93
1142.42
1142.01
1137.62
1145.85
1145.18
1148.4
1148.84
1143.77
1141.3
1147.4
1145.48
1140.7
1131.95
1140.1
1132.23
1138.08
1136.68
1132.34
1138.15
1137.19
1140.24
1140.92
1135.04
1131.31
1138.83
1136.24
1132.54
1122.52
1131.57
1122.57
1128.78
1126.33
1122.58
1119.49
1118.42
1121.38
1122.16
1116.11
1112.43
1119.8
1117.11
1113.9
1104.92
1112.96
1104.9
1110.28
1108.06
1105.04
1151.15
1152.4
1151.3
1150.12
1153.95
1155.09
1152.82
1153.85
1151.33
1151.6
1152.53
1152.7
1154.17
1155.02
1153.84
1152.87
1153.64
1152.6
1151.9
1154.55
1155.18
1153.43
1153.85
1153.22
1152.96
1153.87
1153.41
1154.7
1155.08
1153.94
1154.15
1154.35
1153.46
1153.32
1154.51
1154.46
1153.45
1153.03
1153.81
1151.02
1153.93
1151.34
1153.86
1153.92
1151.68
1151.18
1151.01
1150.31
1150.57
1150.57
1149.75
1149.69
1148.51
1149.78
1144.38
1149.56
1144.64
1148.79
1148.38
1145.03
1142.91
1142.55
1142.03
1142.49
1141.62
1139.93
1141.09
1139.36
1140.4
1132.91
1139.99
1133.32
1138.76
1137.84
1134.13
1123.75
1123.33
1123.04
1123.58
1122.32
1120.75
1121.96
1120.15
1120.78
1114.11
1120.51
1114.6
1119.55
1119.01
1115.71
1073.99
1076.86
1082.94
1086.68
1088.05
1091.97
1088.1
1091.77
1077.52
1083.26
1076.53
1081.88
1072.99
1077.6
1067.2
1070.73
1098.61
1109.67
1105.68
1119.57
1100.57
1113.79
1108.4
1124.5
1077.57
1079.41
1079.71
1079.63
1086.78
1087.74
1089.74
1088.35
1104.66
1098.27
1114.84
1106.21
1097.13
1100.86
1107.62
1115.34
1123.95
1128.19
1111.76
1119.66
1129.59
1134
1105.22
1111.12
1117.62
1120.84
1099.59
1104.24
1081.7
1073.26
1076.02
1064.98
1089.5
1079.68
1084
1071.96
1100.37
1089.19
1101.12
1086.45
1099.72
1083.43
1101.83
1084.49
1119.83
1127.14
1128.19
1133.89
1124.79
1132.1
1133.38
1139.53
1122.35
1127.3
1115.47
1122.11
1133.28
1137.9
1137.11
1140.32
1138.65
1143.83
1142.56
1146.44
1126.54
1130.56
1129.97
1132.57
1114.76
1098.03
1117.98
1102.2
1111.13
1096.76
1114.64
1100.24
1117.09
1099.06
1120.28
1103.69
1119.65
1100.73
1121.81
1104.79
1076.97
1077.01
1074.79
1077.57
1084.25
1082.71
1080.51
1082.42
1093.82
1091.25
1088.35
1089.43
1109.47
1113.63
1106.92
1106.95
1096
1108.94
1103.92
1099.75
1102.62
1095.6
1120.66
1117.17
1114.97
1110.67
1098.64
1079.21
1077.94
1086.19
1088.06
1082.65
1080.23
1088.85
1090.21
1088.68
1084.69
1092.83
1092.84
1105.38
1097.94
1100.35
1091.39
1098.82
1091.35
1101.48
1096.45
1096.56
1093.85
1119.85
1117.45
1114.95
1108.62
1112.2
1104.87
1107.94
1100.55
1097.34
1090.54
1124.75
1110.32
1130.73
1115.74
1132.71
1128.37
1139.73
1134.74
1122
1104.37
1117.74
1101.2
1134.44
1118.97
1136.12
1120.01
1143.47
1137.48
1145.28
1138.43
1125.17
1106.69
1126.58
1107.49
1111.68
1094.36
1097.32
1082.03
1109.39
1092.84
1096.57
1082.45
1113.59
1096.03
1098.08
1082.47
1115.35
1096.6
1099.74
1083.99
1071.57
1060.72
1041.53
1079.9
1068.69
1049.5
1073.77
1063.15
1044.02
1082.22
1071.21
1051.57
1078.41
1068.88
1049.91
1084.48
1073
1052.38
1090.69
1081.28
1060.77
1082.37
1073.4
1053.88
1083.05
1073.14
1053.27
1089.39
1079.2
1058.93
1083.03
1070.2
1047.87
1110.29
1097.43
1072.81
1095.47
1082.08
1058.07
1090.9
1077.71
1054.38
1086.61
1073.21
1050.08
1072.11
1057.81
1034.32
1107.32
1118.97
1114.11
1128.44
1103.49
1117
1111.19
1127.49
1092.99
1103.54
1095.01
1103.44
1101.72
1110.08
1104.56
1110.72
1119.39
1113.27
1128.74
1120.77
1117.52
1121.08
1132.4
1136.19
1132.46
1136.72
1119.05
1123.63
1130.83
1133.41
1118.68
1122.17
1118.88
1131.48
1111.98
1121.2
1123.22
1134.83
1117.57
1125.8
1128.88
1139.46
1128.95
1135.61
1125.82
1129.3
1126.77
1127.97
1131.87
1141.16
1139.21
1147.41
1128.88
1136.89
1137.1
1144.13
1140.4
1149.55
1134.63
1144.83
1143.7
1151.06
1147.18
1153.38
1142.15
1148.28
1145.94
1150.86
1143.83
1152.4
1146.76
1154.27
1142.21
1145.2
1150.13
1148.59
1139.45
1144.46
1146.88
1146.51
1143.67
1144.97
1152.17
1149.84
1145.51
1145.27
1153.55
1150.61
1117.59
1114.53
1134.54
1132.23
1120.4
1116.67
1136.4
1133.57
1124.75
1121.3
1138.97
1136.33
1124.26
1118.9
1128.64
1135.93
1142.49
1114.4
1119.13
1122.08
1131
1139.6
1126.14
1132.39
1138.44
1142.64
1143.88
1108.97
1100.65
1125.66
1115.8
1111.54
1103.75
1127.9
1118.9
1116.68
1109.67
1131.76
1124
1111.56
1105.23
1117.43
1111.24
1122.37
1116.3
1130.15
1124.13
1137.06
1129.94
1126.23
1125.9
1132.8
1132.27
1138.6
1137.08
1141.87
1138.1
1141.33
1133.81
1144.36
1144.68
1150.1
1150.2
1139.43
1139.49
1146.23
1145.93
1151.61
1150.38
1147.26
1145.96
1152.92
1152.43
1154.47
1153.2
1149.53
1148.53
1151.31
1149.49
1153.94
1152.27
1155.15
1152.74
1150.66
1146.57
1145.13
1136.67
1147.57
1143.12
1143.69
1134.96
1152.32
1148.1
1145.84
1137.25
1153.2
1148.43
1146.56
1138.2
1088.4
1074.86
1054.25
1098.23
1083
1062.28
1092.43
1079.09
1058.49
1102.57
1087.77
1066.44
1100.3
1088.45
1068.01
1109.16
1094.08
1071.59
1098.99
1089.42
1068.47
1105.05
1094.97
1073.91
1109.38
1097.95
1076.3
1116.16
1104.4
1082.82
1115.1
1099.46
1075.37
1121.07
1108.72
1083.86
1127.44
1115.05
1090.21
1130.98
1117.75
1092.42
1129.43
1115.45
1090.23
1117.77
1102.28
1076.51
1135.84
1134.09
1127.28
1112.91
1125
1123.35
1117.04
1104.08
1137.98
1135.72
1128.55
1113.52
1128.56
1126.43
1119.58
1105.67
1140.67
1137.58
1130.5
1115.58
1136.43
1133.59
1126.34
1111.55
1128.58
1125.45
1118.71
1105.6
1125.96
1122.35
1116.23
1104.75
1142.88
1138.64
1131.23
1116.11
1141.17
1134.94
1128.37
1113.99
1142.04
1137.69
1130.99
1116.76
1139.34
1133.27
1127.24
1113.54
1142.34
1138.07
1130.25
1114.81
1142.31
1135.97
1128.85
1113.61
1141.92
1137.48
1129.91
1115.26
1142.96
1136.5
1129.16
1113.76
1139.23
1137.12
1130.38
1115.34
1135.36
1132.47
1126.81
1112.27
1139.65
1137.02
1130.29
1115.25
1135.12
1131.76
1126.24
1111.97
1139.82
1136.34
1129.84
1115.19
1135.29
1131.16
1125.69
1111.58
1139.06
1134.32
1128.27
1114.21
1135.14
1130.15
1124.83
1111.03
1136.77
1130.85
1125.41
1112.13
1125.43
1121.53
1116.76
1101.85
1110.72
1106.02
1099.42
1082
1126.04
1121.72
1116.84
1101.99
1111.26
1106.07
1099.32
1081.83
1127.07
1122.01
1116.98
1102.05
1112.16
1106.18
1099.29
1081.93
1128.49
1122.49
1117.24
1102.34
1113.33
1106.43
1099.33
1081.92
1129.97
1123.02
1117.44
1102.56
1114.34
1106.46
1099.12
1081.58
1131.19
1123.1
1117.15
1102.02
1116.81
1107.6
1099.77
1081.85
1130.73
1123.07
1117.29
1102.28
1115.79
1107.12
1099.53
1081.86
1131.31
1122.94
1117.01
1101.92
1117.1
1107.59
1099.76
1082.06
1131.49
1122.96
1117
1101.97
1117.22
1107.55
1099.67
1082.04
1094.05
1083.42
1074.99
1063.96
1043.49
1087.48
1077.43
1069.15
1058.22
1037.91
1094.26
1083.52
1075.07
1064.04
1043.57
1088.12
1077.97
1069.66
1058.72
1038.4
1094.88
1083.86
1075.35
1064.31
1043.82
1092.22
1081.84
1073.47
1062.46
1042.03
1088.5
1078.27
1069.95
1059
1038.66
1088.79
1078.62
1070.31
1059.36
1039.02
1094.93
1083.86
1075.35
1064.3
1043.82
1087.64
1075.6
1067.04
1056.1
1035.84
1093.71
1082.25
1073.7
1062.67
1042.24
1086.18
1074.02
1065.46
1054.54
1034.32
1094.26
1083.29
1074.81
1063.78
1043.32
1086.25
1074.24
1065.7
1054.79
1034.58
1094.6
1083.61
1075.13
1064.09
1043.63
1085.48
1073.44
1064.91
1054
1033.82
1092.56
1081.12
1072.59
1061.58
1041.18
1083.64
1071.51
1062.99
1052.1
1031.96
1092.18
1080.63
1072.09
1061.08
1040.69
1083.35
1071.17
1062.65
1051.77
1031.63
1091.22
1079.47
1070.91
1059.92
1039.56
1082.63
1070.39
1061.86
1050.99
1030.88
1087.8
1075.67
1067.09
1056.15
1035.89
1080.57
1068.27
1059.75
1048.91
1028.85
1082.33
1070.11
1061.58
1050.71
1030.61
1075.02
1074.34
1075.74
1074.89
1076.7
1075.38
1077.33
1075.34
1076.83
1074.39
1075.89
1071.56
1075.81
1072.06
1076.19
1071.75
1076.55
1072.24
1062.02
1052.85
1045.33
1034.93
1013
1060.08
1050.08
1041.97
1031.21
1009.14
1062.14
1052.9
1045.36
1034.96
1013.04
1060.12
1050.06
1041.96
1031.13
1009
1062.33
1052.98
1045.43
1035.02
1013.1
1060.25
1050.11
1042
1031.17
1009.06
1062.35
1052.95
1045.4
1035
1013.08
1060.26
1050.12
1042
1031.15
1009.04
1061.9
1052.61
1045.08
1034.71
1012.84
1059.97
1049.97
1041.87
1031.04
1008.96
1061.77
1052.69
1045.2
1034.83
1013.07
1059.26
1049.73
1041.73
1030.94
1008.98
1061.63
1052.5
1045
1034.64
1012.84
1059.48
1049.81
1041.78
1030.98