/*--------------------------------*- C++ -*----------------------------------*\
  =========                 |
  \\      /  F ield         | OpenFOAM: The Open Source CFD Toolbox
   \\    /   O peration     | Website:  https://openfoam.org
    \\  /    A nd           | Version:  13
     \\/     M anipulation  |
\*---------------------------------------------------------------------------*/
FoamFile
{
    format      ascii;
    class       volScalarField;
    location    "224.831886";
    object      T;
}
// * * * * * * * * * * * * * * * * * * * * * * * * * * * * * * * * * * * * * //

dimensions      [0 0 0 1 0 0 0];

internalField   nonuniform List<scalar> 
5712
(
1131.53
1131.46
1131.33
1131.21
1131.02
1130.9
1130.58
1130.48
1130.66
1130.55
1131
1130.89
1131.25
1131.14
1131.44
1131.35
1130.93
1130.78
1130.73
1130.53
1130.4
1130.21
1130.22
1129.97
1131.81
1132.27
1131.73
1132.16
1131.62
1132.06
1131.5
1131.91
1131.19
1131.42
1130.98
1131.27
1131.8
1131.55
1130.48
1130.11
1130.28
1130.01
1130
1129.69
1129.76
1129.53
1130.94
1130.55
1130.72
1130.43
1131.3
1130.93
1132.79
1133.1
1132.57
1132.89
1132.58
1132.96
1132.33
1132.68
1132.27
1132.79
1131.88
1132.37
1131.59
1132.06
1131.25
1131.74
1130.83
1130.76
1130.51
1130.48
1130.12
1130.04
1129.87
1129.79
1131.12
1131.22
1131.5
1131.53
1130.24
1130.24
1129.99
1130.05
1129.64
1129.57
1129.43
1129.39
1130.81
1130.97
1130.54
1130.77
1131.72
1132.3
1131.96
1132.61
1132.14
1132.74
1132.28
1132.96
1131.38
1131.95
1131.69
1132.34
1131.08
1131.64
1131.49
1132.12
1133.53
1134.2
1133.64
1134.31
1133.33
1133.95
1133.53
1134.17
1132.99
1133.47
1133.35
1133.88
1131.29
1130.45
1132.05
1132.62
1133.24
1130.56
1131.45
1132.35
1132.96
1133.63
1130.35
1131.14
1131.91
1132.63
1133.34
1134.83
1135.12
1135.18
1135.45
1134.51
1134.85
1134.97
1135.25
1133.96
1134.34
1134.6
1134.95
1130.74
1131.04
1131.71
1132.13
1132.6
1133.04
1133.32
1133.75
1134.27
1134.71
1130.49
1130.73
1131.37
1131.81
1132.21
1132.71
1133.03
1133.58
1134.08
1134.66
1130.98
1131.48
1130.63
1131.06
1130.11
1130.24
1129.8
1129.86
1131.51
1132.1
1131.85
1132.48
1130.32
1130.76
1130.13
1130.55
1129.54
1129.61
1129.36
1129.4
1131.19
1131.79
1130.99
1131.58
1132.51
1133.23
1133.75
1134.63
1132.79
1133.54
1133.93
1134.79
1132.25
1132.95
1133.57
1134.44
1132.01
1132.71
1133.31
1134.13
1135.2
1135.31
1135.54
1135.26
1135.29
1135.51
1134.99
1135.14
1135.39
1135.11
1135.16
1135.38
1134.57
1134.77
1135.05
1134.88
1134.96
1135.22
1131.41
1131.84
1132.3
1132.57
1132.94
1133.34
1133.45
1133.76
1134.11
1134.08
1134.34
1134.67
1134.7
1134.82
1135.12
1131.07
1131.55
1132.06
1132.39
1132.89
1133.4
1133.29
1133.73
1134.18
1134.02
1134.34
1134.74
1134.69
1134.85
1135.2
1129.45
1129.29
1129.31
1129.11
1129.88
1129.69
1129.72
1129.49
1129.34
1129.01
1129.3
1128.99
1129.25
1128.95
1129.19
1128.91
1128.97
1129.1
1128.89
1129.04
1128.9
1128.8
1128.96
1128.78
1129.3
1129.1
1128.89
1128.72
1128.77
1128.61
1128.74
1128.57
1128.67
1128.38
1128.73
1128.45
1128.64
1128.33
1128.65
1128.37
1128.6
1128.27
1128.54
1128.22
1128.48
1128.21
1128.34
1128.11
1129.08
1128.95
1128.91
1128.75
1129.53
1129.41
1129.33
1129.2
1128.61
1128.43
1128.76
1128.6
1128.74
1128.59
1128.57
1128.44
1129.13
1129.01
1128.94
1128.85
1128.47
1128.28
1128.31
1128.16
1128.37
1128.09
1128.21
1128.05
1128.49
1128.2
1128.36
1128.17
1128.24
1128
1128.09
1127.94
1128.11
1127.9
1127.97
1127.85
1128.67
1128.81
1128.4
1128.54
1128.67
1128.81
1128.39
1128.53
1128.67
1128.8
1128.36
1128.49
1129.2
1129.74
1128.87
1128.6
1128.32
1129.84
1129.31
1128.99
1128.73
1128.44
1129.64
1129.12
1128.75
1128.5
1128.29
1129.04
1129.37
1128.78
1129.1
1129.03
1129.34
1128.75
1129.05
1128.99
1129.28
1128.68
1128.96
1129.97
1130.22
1129.41
1129.66
1129.09
1129.35
1128.84
1129.11
1128.56
1128.83
1129.72
1129.86
1129.19
1129.33
1128.83
1129
1128.6
1128.81
1128.41
1128.68
1128.91
1128.95
1128.71
1128.7
1129.39
1129.42
1129.15
1129.1
1128.42
1128.48
1128.59
1128.7
1128.56
1128.5
1128.42
1128.34
1128.97
1128.88
1128.81
1128.69
1128.29
1128.31
1128.16
1128.16
1128.24
1128.38
1128.15
1128.37
1128.4
1128.57
1128.27
1128.52
1128.12
1128.22
1128.05
1128.24
1128.01
1128.1
1127.96
1128.12
1129.81
1130.26
1130.68
1129.65
1130.15
1130.57
1129.76
1130.21
1130.63
1129.58
1130.09
1130.52
1129.67
1130.11
1130.55
1129.47
1130
1130.46
1130.55
1130.98
1131.44
1130.01
1130.45
1130.92
1129.7
1130.16
1130.64
1129.49
1129.95
1130.41
1129.34
1129.9
1130.41
1130.13
1130.58
1131.11
1129.61
1130.08
1130.6
1129.33
1129.82
1130.36
1129.19
1129.72
1130.26
1129.22
1129.8
1130.36
1128.24
1128.42
1128.91
1129.83
1128.32
1128.51
1129.02
1129.95
1128.21
1128.39
1128.88
1129.81
1128.26
1128.46
1128.97
1129.91
1128.16
1128.35
1128.82
1129.73
1128.14
1128.36
1128.86
1129.78
1128.16
1128.4
1128.94
1129.89
1128.1
1128.38
1128.94
1129.89
1128.05
1128.28
1128.78
1129.69
1128.07
1128.32
1128.77
1129.59
1128.13
1128.34
1128.78
1129.63
1128.15
1128.38
1128.79
1129.57
1127.99
1128.24
1128.78
1129.72
1127.99
1128.26
1128.74
1129.58
1127.92
1128.21
1128.76
1129.7
1127.92
1128.22
1128.71
1129.55
1128.26
1128.41
1128.86
1129.72
1128.37
1128.5
1128.88
1129.63
1128.25
1128.41
1128.85
1129.71
1128.37
1128.5
1128.88
1129.63
1128.23
1128.4
1128.83
1129.66
1128.34
1128.49
1128.87
1129.61
1128.23
1128.41
1128.82
1129.6
1128.32
1128.49
1128.86
1129.58
1128.24
1128.44
1128.82
1129.54
1128.55
1128.66
1129
1129.53
1128.75
1128.84
1129.19
1129.69
1128.53
1128.64
1128.99
1129.52
1128.73
1128.83
1129.18
1129.69
1128.49
1128.62
1128.97
1129.51
1128.69
1128.81
1129.17
1129.68
1128.43
1128.59
1128.95
1129.49
1128.63
1128.78
1129.16
1129.67
1128.36
1128.55
1128.92
1129.47
1128.57
1128.75
1129.14
1129.66
1128.21
1128.47
1128.88
1129.45
1128.4
1128.66
1129.08
1129.61
1128.28
1128.51
1128.9
1129.46
1128.49
1128.7
1129.11
1129.63
1128.15
1128.43
1128.86
1129.44
1128.33
1128.61
1129.05
1129.59
1128.08
1128.39
1128.84
1129.42
1128.26
1128.57
1129.02
1129.57
1131.24
1132.39
1133.37
1134.17
1134.79
1131.31
1132.45
1133.42
1134.22
1134.84
1131.23
1132.38
1133.36
1134.17
1134.79
1131.3
1132.44
1133.42
1134.22
1134.84
1131.22
1132.38
1133.36
1134.16
1134.78
1131.25
1132.39
1133.38
1134.18
1134.8
1131.28
1132.42
1133.41
1134.21
1134.83
1131.26
1132.41
1133.4
1134.2
1134.83
1131.21
1132.37
1133.36
1134.16
1134.78
1131.27
1132.46
1133.45
1134.25
1134.87
1131.22
1132.39
1133.38
1134.18
1134.8
1131.29
1132.48
1133.46
1134.27
1134.89
1131.21
1132.37
1133.36
1134.16
1134.78
1131.27
1132.47
1133.46
1134.26
1134.88
1131.19
1132.36
1133.35
1134.16
1134.78
1131.27
1132.47
1133.46
1134.27
1134.89
1131.25
1132.42
1133.4
1134.2
1134.82
1131.34
1132.52
1133.5
1134.3
1134.92
1131.25
1132.42
1133.4
1134.2
1134.82
1131.33
1132.52
1133.5
1134.3
1134.92
1131.25
1132.43
1133.41
1134.21
1134.83
1131.33
1132.52
1133.51
1134.31
1134.93
1131.28
1132.46
1133.45
1134.25
1134.87
1131.35
1132.54
1133.53
1134.33
1134.95
1131.33
1132.52
1133.51
1134.31
1134.93
1136.65
1136.84
1136.56
1136.76
1136.4
1136.63
1136.21
1136.47
1136.01
1136.31
1135.71
1136.06
1135.87
1136.21
1135.56
1135.89
1135.4
1135.7
1138.84
1141.25
1143.29
1144.88
1145.97
1138.8
1141.23
1143.29
1144.9
1146.01
1138.8
1141.23
1143.28
1144.87
1145.97
1138.77
1141.22
1143.28
1144.89
1146
1138.72
1141.19
1143.25
1144.85
1145.95
1138.69
1141.18
1143.25
1144.87
1145.98
1138.62
1141.13
1143.21
1144.82
1145.92
1138.6
1141.12
1143.22
1144.84
1145.96
1138.5
1141.05
1143.15
1144.78
1145.88
1138.5
1141.05
1143.17
1144.81
1145.93
1138.24
1140.85
1143
1144.66
1145.78
1138.26
1140.88
1143.04
1144.7
1145.83
1138.37
1140.95
1143.08
1144.72
1145.84
1138.39
1140.97
1143.11
1144.76
1145.88
1138.11
1140.75
1142.92
1144.59
1145.72
1138.12
1140.77
1142.95
1144.63
1145.76
1137.97
1140.64
1142.84
1144.52
1145.65
1137.97
1140.65
1142.85
1144.55
1145.69
1128.99
1129.3
1129.55
1129.2
1129.61
1129.57
1129.56
1129.5
1129.66
1129.58
1130.07
1129.97
1130.27
1130.16
1129.97
1129.88
1129.84
1129.78
1129.82
1129.77
1129.2
1129.1
1129.9
1130.23
1130.35
1130.38
1130.07
1130.02
1130.42
1129.92
1130.76
1131.28
1129.98
1130.15
1130.55
1130.08
1130.27
1130.29
1129.68
1129.62
1129.81
1129.73
1129.64
1129.55
1129.63
1129.75
1130.2
1130.11
1129.96
1129.87
1129.34
1129.2
1129.41
1129.29
1129.41
1129.46
1129.66
1129.95
1129.66
1128.66
1128.38
1128.25
1128.26
1128.4
1128.71
1128.48
1128.37
1128.4
1128.58
1129.64
1129.52
1129.51
1129.61
1129.83
1129.98
1129.87
1129.87
1129.98
1130.21
1130.1
1129.98
1129.97
1130.08
1130.3
1130.13
1130.02
1130.01
1130.12
1130.35
1129.81
1129.69
1129.68
1129.79
1130.01
1129.43
1129.06
1128.87
1128.82
1128.92
1129.79
1129.4
1129.19
1129.14
1129.26
1129.51
1129.24
1129.09
1129.09
1129.26
1130.17
1129.8
1129.61
1129.58
1129.73
1130.71
1130.32
1130.13
1130.1
1130.24
1129.66
1129.47
1129.39
1129.44
1129.64
1129.77
1129.53
1129.4
1129.42
1129.6
1130.18
1129.94
1129.83
1129.85
1130.03
1129.78
1129.61
1129.55
1129.62
1129.82
1129.95
1129.76
1129.68
1129.73
1129.93
1129.99
1129.83
1129.78
1129.85
1130.05
1129.14
1128.83
1128.67
1128.64
1128.76
1129.25
1129.03
1128.92
1128.94
1129.12
1129.51
1129.33
1129.27
1129.33
1129.53
1129.44
1129.28
1129.23
1129.3
1129.51
1129.32
1129.14
1129.07
1129.12
1129.32
1129.25
1129.08
1129.03
1129.1
1129.31
1129.35
1129.21
1129.18
1129.27
1129.48
1129.48
1129.34
1129.31
1129.4
1129.62
1129.93
1129.79
1129.76
1129.85
1130.07
1129.84
1129.72
1129.7
1129.79
1130.02
1129.67
1129.52
1129.48
1129.56
1129.77
1129.59
1129.45
1129.42
1129.51
1129.72
1128.81
1128.53
1128.39
1128.39
1128.52
1128.83
1128.61
1128.51
1128.55
1128.74
1128.98
1128.72
1128.59
1128.6
1128.75
1128.96
1128.77
1128.7
1128.75
1128.95
1129.1
1128.93
1128.87
1128.93
1129.14
1129.1
1128.89
1128.78
1128.82
1129
1129.38
1129.24
1129.2
1129.29
1129.5
1129.68
1129.55
1129.53
1129.63
1129.85
1129.37
1129.22
1129.17
1129.25
1129.46
1129.24
1129.4
1129.26
1129.43
1128.84
1129.02
1128.83
1128.99
1129.27
1129.29
1129.44
1129.41
1128.84
1128.85
1129.01
1128.96
1129.67
1130.08
1129.81
1130.2
1129.67
1130.04
1129.83
1130.2
1129.84
1129.69
1129.76
1129.66
1129.98
1130.13
1129.64
1129.82
1129.57
1129.76
1129.23
1129.42
1129.12
1129.31
1130.04
1130.23
1129.92
1130.14
1130.34
1130.57
1130.45
1130.77
1130.56
1130.86
1130.43
1130.81
1130.56
1130.9
1130.36
1130.89
1130.45
1130.92
1130.65
1131.12
1130.92
1131.4
1129.42
1129.52
1129.5
1129.62
1128.89
1128.92
1128.97
1129
1130
1130.31
1129.93
1130.21
1129.63
1129.73
1129.8
1129.88
1129.1
1129.11
1129.25
1129.24
1130.13
1130.43
1130.32
1130.59
1130.52
1131.1
1131.02
1131.68
1130.48
1131.1
1130.93
1131.63
1130.65
1131.2
1131.14
1131.78
1130.84
1131.39
1131.3
1131.93
1130.49
1130.69
1130.85
1131.16
1130.46
1130.62
1130.9
1131.2
1130.4
1130.49
1131
1131.25
1129.4
1128.85
1129.94
1130.51
1131.23
1128.83
1129.36
1129.89
1130.5
1131.36
1128.88
1129.47
1130.14
1130.88
1131.64
1131.01
1131.14
1131.98
1132.26
1130.86
1130.99
1131.92
1132.2
1130.64
1130.75
1131.85
1132.13
1128.84
1128.91
1129.4
1129.48
1129.98
1130.07
1130.68
1130.8
1131.93
1132.24
1128.88
1128.94
1129.53
1129.71
1130.26
1130.5
1131.12
1131.4
1132.27
1132.64
1129.67
1129.99
1129.76
1130.08
1128.93
1128.95
1129
1129
1130.59
1131.07
1130.49
1130.94
1129.83
1130.2
1129.97
1130.37
1129.09
1129.1
1129.21
1129.24
1130.66
1131.2
1130.82
1131.39
1131.59
1132.21
1132.86
1133.66
1131.42
1132.03
1132.63
1133.38
1131.71
1132.36
1133.05
1133.87
1131.82
1132.52
1133.15
1133.96
1131.18
1131.29
1132.05
1132.05
1131.04
1131.16
1132.01
1132
1130.83
1131.01
1131.97
1131.97
1129.06
1129.32
1129.65
1129.89
1130.21
1130.42
1130.91
1131.11
1132.04
1132.02
1129.09
1129.37
1129.95
1130.21
1130.71
1130.9
1131.48
1131.55
1132.26
1132.17
1128.17
1128.15
1128.33
1128.26
1128.47
1128.46
1128.64
1128.57
1127.95
1127.79
1128.11
1127.94
1127.96
1127.81
1128.12
1127.97
1128.1
1127.95
1128.08
1127.97
1127.85
1127.98
1128.41
1128.59
1128.72
1128.9
1128.29
1128.5
1128.23
1128.42
1128.17
1128.36
1127.7
1127.62
1127.84
1127.76
1127.7
1127.61
1127.85
1127.75
1127.72
1127.6
1127.83
1127.69
1128
1127.85
1128.17
1127.98
1128.1
1128.08
1128.18
1128.14
1128.44
1128.43
1128.52
1128.5
1127.94
1127.89
1127.87
1127.85
1128.29
1128.22
1128.42
1128.32
1128.64
1128.59
1128.78
1128.71
1128.05
1127.96
1128.17
1128.04
1127.77
1127.64
1127.74
1127.66
1127.71
1127.6
1127.71
1127.64
1127.87
1127.71
1127.8
1127.71
1127.98
1127.8
1127.88
1127.77
1127.63
1127.66
1127.57
1127.61
1127.65
1127.68
1127.57
1127.62
1127.68
1127.71
1127.58
1127.63
1128.07
1128.4
1127.85
1127.69
1127.61
1128.41
1128.09
1127.87
1127.72
1127.64
1128.4
1128.06
1127.83
1127.7
1127.64
1127.77
1127.95
1127.74
1127.94
1127.77
1127.94
1127.73
1127.92
1127.77
1127.92
1127.72
1127.89
1128.41
1128.47
1128.09
1128.17
1127.89
1128
1127.76
1127.89
1127.7
1127.86
1128.37
1128.39
1128.05
1128.08
1127.84
1127.91
1127.73
1127.84
1127.7
1127.86
1128.03
1128.01
1128.09
1128.03
1128.37
1128.32
1128.45
1128.35
1127.88
1127.88
1127.83
1127.86
1128.19
1128.1
1128.29
1128.21
1128.56
1128.43
1128.67
1128.55
1127.96
1127.95
1128.05
1128.05
1127.77
1127.84
1127.76
1127.91
1127.73
1127.83
1127.72
1127.88
1127.83
1127.9
1127.81
1127.96
1127.91
1127.99
1127.88
1128.03
1128.17
1128.38
1128.22
1128.47
1128.14
1128.37
1128.2
1128.46
1128.12
1128.36
1128.17
1128.47
1128.62
1128.89
1128.33
1128.61
1128.17
1128.45
1128.08
1128.36
1128.14
1128.49
1128.51
1128.81
1128.22
1128.54
1128.08
1128.42
1128.06
1128.42
1128.17
1128.57
1127.72
1128.07
1128.67
1129.67
1127.84
1128.19
1128.8
1129.8
1127.71
1128.05
1128.66
1129.66
1127.83
1128.17
1128.78
1129.77
1127.7
1128.05
1128.62
1129.59
1127.78
1128.11
1128.69
1129.67
1127.91
1128.24
1128.83
1129.81
1128.02
1128.32
1128.9
1129.86
1127.74
1128.07
1128.63
1129.58
1127.8
1128.13
1128.64
1129.49
1127.72
1128.06
1128.59
1129.5
1127.79
1128.13
1128.62
1129.45
1127.79
1128.11
1128.68
1129.65
1127.83
1128.15
1128.66
1129.52
1127.85
1128.16
1128.72
1129.67
1127.87
1128.18
1128.68
1129.52
1127.68
1128.02
1128.59
1129.54
1127.74
1128.08
1128.59
1129.44
1127.69
1128.03
1128.59
1129.54
1127.75
1128.09
1128.6
1129.44
1127.71
1128.05
1128.59
1129.5
1127.76
1128.11
1128.61
1129.43
1127.74
1128.09
1128.59
1129.46
1127.79
1128.13
1128.62
1129.42
1127.8
1128.14
1128.62
1129.4
1127.87
1128.21
1128.7
1129.31
1128.05
1128.39
1128.88
1129.45
1127.87
1128.21
1128.69
1129.3
1128.05
1128.39
1128.88
1129.45
1127.87
1128.22
1128.7
1129.31
1128.05
1128.4
1128.89
1129.45
1127.88
1128.22
1128.7
1129.31
1128.05
1128.4
1128.89
1129.46
1127.88
1128.23
1128.7
1129.31
1128.06
1128.42
1128.91
1129.47
1127.94
1128.28
1128.75
1129.34
1128.1
1128.45
1128.93
1129.5
1127.91
1128.25
1128.72
1129.32
1128.07
1128.43
1128.92
1129.48
1127.98
1128.32
1128.78
1129.37
1128.14
1128.48
1128.96
1129.52
1128.03
1128.35
1128.81
1129.4
1128.2
1128.53
1128.99
1129.55
1131.15
1132.33
1133.33
1134.14
1134.77
1131.22
1132.39
1133.39
1134.2
1134.83
1131.15
1132.33
1133.33
1134.14
1134.77
1131.22
1132.39
1133.39
1134.2
1134.82
1131.14
1132.33
1133.33
1134.14
1134.77
1131.18
1132.35
1133.35
1134.16
1134.79
1131.23
1132.4
1133.39
1134.2
1134.82
1131.25
1132.4
1133.39
1134.2
1134.82
1131.15
1132.33
1133.33
1134.14
1134.77
1131.21
1132.42
1133.43
1134.24
1134.86
1131.15
1132.35
1133.35
1134.16
1134.79
1131.22
1132.44
1133.44
1134.25
1134.88
1131.17
1132.35
1133.34
1134.15
1134.78
1131.24
1132.44
1133.44
1134.25
1134.88
1131.18
1132.35
1133.34
1134.15
1134.78
1131.26
1132.46
1133.46
1134.26
1134.89
1131.15
1132.35
1133.36
1134.17
1134.8
1131.23
1132.46
1133.46
1134.28
1134.9
1131.15
1132.36
1133.36
1134.18
1134.8
1131.23
1132.46
1133.46
1134.28
1134.9
1131.17
1132.37
1133.38
1134.19
1134.82
1131.24
1132.47
1133.47
1134.29
1134.91
1131.2
1132.42
1133.42
1134.23
1134.86
1131.27
1132.49
1133.5
1134.31
1134.93
1131.26
1132.48
1133.48
1134.29
1134.91
1134.04
1134.27
1134.07
1134.3
1134.14
1134.38
1134.26
1134.49
1134.44
1134.64
1134.9
1135.16
1134.69
1134.92
1135.08
1135.37
1135.24
1135.53
1136.93
1139.88
1142.26
1144.06
1145.25
1136.87
1139.85
1142.25
1144.07
1145.28
1136.96
1139.9
1142.27
1144.07
1145.26
1136.9
1139.87
1142.27
1144.09
1145.29
1137.02
1139.94
1142.3
1144.09
1145.28
1136.96
1139.91
1142.3
1144.11
1145.31
1137.11
1140
1142.35
1144.13
1145.31
1137.04
1139.97
1142.34
1144.14
1145.34
1137.24
1140.09
1142.41
1144.18
1145.35
1137.15
1140.04
1142.39
1144.18
1145.37
1137.54
1140.3
1142.57
1144.3
1145.46
1137.49
1140.27
1142.56
1144.31
1145.48
1137.39
1140.19
1142.49
1144.24
1145.4
1137.3
1140.14
1142.46
1144.24
1145.42
1137.69
1140.42
1142.66
1144.37
1145.52
1137.66
1140.4
1142.66
1144.39
1145.55
1137.83
1140.53
1142.75
1144.45
1145.59
1137.82
1140.53
1142.76
1144.47
1145.62
1128.76
1129.05
1128.85
1128.55
1128.17
1128.33
1128.17
1128.35
1128.47
1128.66
1128.47
1128.63
1131.47
1131.42
1131.3
1131.11
1130.85
1130.54
1131.49
1131.45
1131.33
1131.15
1130.92
1130.64
1131.6
1131.79
1131.54
1131.72
1131.41
1131.57
1131.19
1131.32
1130.9
1131
1130.56
1130.67
1130.21
1129.89
1129.63
1129.41
1129.25
1129.13
1130.34
1130.06
1129.8
1129.59
1129.43
1129.31
1131.24
1131.14
1131.16
1131.28
1131.52
1131.19
1131.09
1131.11
1131.23
1131.47
1131.07
1130.97
1130.99
1131.11
1131.34
1130.87
1130.78
1130.79
1130.91
1131.14
1130.61
1130.51
1130.52
1130.64
1130.87
1130.3
1130.19
1130.19
1130.31
1130.54
1131.26
1131.16
1131.18
1131.3
1131.54
1131.21
1131.12
1131.13
1131.26
1131.49
1131.1
1131
1131.01
1131.14
1131.37
1130.91
1130.82
1130.83
1130.95
1131.18
1130.67
1130.57
1130.58
1130.7
1130.93
1130.39
1130.29
1130.29
1130.41
1130.64
1131.36
1131.27
1131.29
1131.41
1131.64
1131.55
1131.46
1131.48
1131.6
1131.83
1131.31
1131.22
1131.23
1131.36
1131.59
1131.49
1131.4
1131.41
1131.54
1131.77
1131.17
1131.08
1131.09
1131.22
1131.45
1131.34
1131.24
1131.26
1131.38
1131.61
1130.95
1130.86
1130.87
1130.99
1131.22
1131.08
1130.99
1131
1131.12
1131.35
1130.66
1130.56
1130.57
1130.69
1130.92
1130.76
1130.66
1130.67
1130.78
1131.02
1130.31
1130.21
1130.21
1130.33
1130.56
1130.42
1130.32
1130.32
1130.43
1130.66
1129.96
1129.84
1129.84
1129.95
1130.18
1129.63
1129.51
1129.5
1129.6
1129.82
1129.35
1129.21
1129.19
1129.28
1129.49
1129.12
1128.96
1128.91
1128.99
1129.2
1128.93
1128.75
1128.69
1128.75
1128.96
1128.8
1128.61
1128.53
1128.59
1128.79
1130.09
1129.98
1129.98
1130.09
1130.32
1129.8
1129.68
1129.67
1129.77
1129.99
1129.53
1129.4
1129.38
1129.47
1129.69
1129.31
1129.16
1129.13
1129.21
1129.43
1129.13
1128.97
1128.93
1129
1129.21
1129.01
1128.84
1128.79
1128.86
1129.07
1131.44
1131.34
1131.17
1130.93
1130.62
1130.25
1131.46
1131.37
1131.2
1130.97
1130.69
1130.37
1131.57
1131.76
1131.46
1131.64
1131.27
1131.43
1131
1131.12
1130.65
1130.74
1130.25
1130.34
1129.87
1129.52
1129.25
1129.08
1129.02
1129.05
1130.04
1129.73
1129.49
1129.32
1129.24
1129.25
1131.21
1131.12
1131.13
1131.26
1131.49
1131.11
1131.02
1131.03
1131.16
1131.39
1130.94
1130.84
1130.86
1130.98
1131.22
1130.69
1130.6
1130.61
1130.73
1130.97
1130.38
1130.28
1130.29
1130.41
1130.65
1130.01
1129.91
1129.92
1130.04
1130.27
1131.23
1131.14
1131.15
1131.28
1131.51
1131.13
1131.04
1131.06
1131.18
1131.42
1130.97
1130.87
1130.89
1131.01
1131.25
1130.74
1130.64
1130.65
1130.78
1131.01
1130.45
1130.35
1130.36
1130.48
1130.72
1130.12
1130.02
1130.03
1130.15
1130.38
1131.34
1131.24
1131.26
1131.39
1131.62
1131.53
1131.43
1131.45
1131.57
1131.81
1131.23
1131.14
1131.15
1131.28
1131.51
1131.41
1131.31
1131.33
1131.45
1131.69
1131.04
1130.94
1130.96
1131.08
1131.32
1131.19
1131.1
1131.12
1131.24
1131.47
1130.76
1130.67
1130.68
1130.81
1131.04
1130.88
1130.79
1130.8
1130.92
1131.16
1130.41
1130.32
1130.33
1130.45
1130.68
1130.5
1130.4
1130.41
1130.54
1130.77
1130.01
1129.91
1129.92
1130.04
1130.27
1130.09
1129.99
1130
1130.12
1130.35
1129.62
1129.51
1129.52
1129.63
1129.86
1129.27
1129.15
1129.15
1129.25
1129.48
1128.98
1128.86
1128.84
1128.94
1129.16
1128.79
1128.64
1128.61
1128.69
1128.91
1128.71
1128.54
1128.48
1128.55
1128.76
1128.72
1128.53
1128.46
1128.52
1128.72
1129.79
1129.68
1129.68
1129.8
1130.03
1129.48
1129.36
1129.36
1129.46
1129.69
1129.22
1129.1
1129.08
1129.18
1129.4
1129.05
1128.91
1128.88
1128.97
1129.19
1128.95
1128.8
1128.76
1128.84
1129.05
1128.95
1128.78
1128.73
1128.81
1129.02
1129.06
1128.99
1129.48
1129.87
1129.9
1129.99
1129.63
1128.83
1128.94
1128.84
1129.19
1129.11
1129.07
1129.29
1129.35
1129.49
1128.79
1128.79
1129.05
1129.07
1128.91
1128.96
1129.16
1129.21
1129.57
1129.57
1129.28
1129.27
1128.92
1128.89
1128.77
1128.85
1128.88
1128.78
1129.13
1129.44
1129.07
1128.53
1128.26
1128.14
1128.15
1128.3
1128.6
1128.37
1128.27
1128.31
1128.5
1129.22
1129.11
1129.11
1129.22
1129.44
1129.62
1129.52
1129.52
1129.63
1129.87
1129.65
1129.54
1129.54
1129.66
1129.89
1129.74
1129.63
1129.64
1129.76
1129.99
1129.38
1129.26
1129.26
1129.38
1129.61
1128.36
1128.11
1128.01
1128.03
1128.18
1128.49
1128.25
1128.16
1128.19
1128.35
1128.5
1128.31
1128.24
1128.29
1128.49
1128.79
1128.58
1128.51
1128.56
1128.75
1128.82
1128.68
1128.64
1128.73
1128.95
1128.76
1128.59
1128.53
1128.61
1128.81
1129.02
1128.89
1128.87
1128.96
1129.18
1129.07
1128.93
1128.9
1128.99
1129.21
1129.23
1129.1
1129.08
1129.18
1129.4
1128.33
1128.09
1127.99
1128.02
1128.18
1128.47
1128.29
1128.23
1128.29
1128.5
1128.77
1128.63
1128.6
1128.69
1128.91
1128.8
1128.67
1128.64
1128.74
1128.96
1128.62
1128.47
1128.43
1128.52
1128.74
1128.67
1128.53
1128.5
1128.59
1128.81
1128.89
1128.77
1128.75
1128.85
1129.07
1128.95
1128.83
1128.81
1128.92
1129.14
1129.31
1129.19
1129.18
1129.29
1129.52
1129.31
1129.2
1129.19
1129.3
1129.53
1129.01
1128.88
1128.87
1128.97
1129.19
1129.01
1128.89
1128.87
1128.98
1129.2
1128.42
1128.17
1128.06
1128.08
1128.23
1128.53
1128.33
1128.25
1128.3
1128.49
1128.38
1128.17
1128.08
1128.11
1128.29
1128.54
1128.37
1128.31
1128.38
1128.59
1128.59
1128.44
1128.4
1128.48
1128.7
1128.46
1128.28
1128.21
1128.27
1128.47
1128.87
1128.74
1128.72
1128.82
1129.04
1129.19
1129.07
1129.07
1129.17
1129.4
1128.79
1128.66
1128.64
1128.74
1128.96
1129.19
1128.97
1128.89
1128.93
1129.08
1129.37
1129.19
1129.21
1128.78
1128.77
1129.23
1129.26
1128.79
1128.81
1129.63
1130.09
1129.64
1130.05
1129.68
1129.66
1129.98
1129.18
1129.2
1128.77
1128.76
1129.22
1129.26
1128.78
1128.8
1129.66
1130.15
1129.66
1130.09
1129.7
1129.67
1130.01
1129.19
1129.21
1128.76
1128.75
1129.23
1129.27
1128.78
1128.81
1129.69
1130.27
1129.69
1130.2
1129.73
1129.69
1130.1
1129.27
1129.29
1128.84
1128.82
1129.32
1129.36
1128.85
1128.88
1129.8
1130.42
1129.8
1130.34
1129.83
1129.78
1130.22
1129.41
1129.43
1128.98
1128.96
1129.45
1129.5
1128.99
1129.02
1129.94
1130.52
1129.94
1130.46
1129.96
1129.92
1130.34
1129.67
1129.68
1129.24
1129.23
1129.7
1129.74
1129.25
1129.27
1130.17
1130.7
1130.15
1130.64
1130.17
1130.13
1130.52
1128.11
1128.11
1128.41
1128.41
1128.12
1128.12
1128.42
1128.42
1127.9
1127.73
1127.91
1127.75
1127.91
1127.93
1127.8
1128.1
1128.1
1128.4
1128.39
1128.11
1128.12
1128.4
1128.41
1127.87
1127.73
1127.88
1127.76
1127.9
1127.93
1127.81
1128.09
1128.09
1128.39
1128.38
1128.11
1128.12
1128.4
1128.42
1127.88
1127.79
1127.9
1127.81
1127.93
1127.96
1127.86
1128.16
1128.17
1128.46
1128.45
1128.19
1128.21
1128.48
1128.49
1127.97
1127.92
1127.99
1127.94
1128.03
1128.07
1127.99
1128.31
1128.32
1128.6
1128.6
1128.34
1128.37
1128.62
1128.64
1128.14
1128.11
1128.16
1128.13
1128.2
1128.25
1128.17
1128.58
1128.59
1128.87
1128.86
1128.62
1128.64
1128.89
1128.9
1128.42
1128.36
1128.44
1128.38
1128.47
1128.51
1128.42
1131.55
1131.48
1131.33
1131.22
1131.02
1130.9
1130.58
1130.49
1130.66
1130.55
1131
1130.89
1131.25
1131.15
1131.45
1131.38
1130.93
1130.78
1130.73
1130.53
1130.4
1130.21
1130.22
1129.97
1131.82
1132.28
1131.75
1132.17
1131.63
1132.06
1131.5
1131.91
1131.19
1131.43
1130.98
1131.27
1131.8
1131.55
1130.48
1130.11
1130.28
1130.01
1130
1129.69
1129.76
1129.53
1130.94
1130.55
1130.72
1130.43
1131.3
1130.93
1132.8
1133.1
1132.58
1132.9
1132.58
1132.97
1132.33
1132.68
1132.27
1132.79
1131.89
1132.37
1131.59
1132.06
1131.25
1131.74
1130.83
1130.77
1130.51
1130.48
1130.12
1130.04
1129.87
1129.79
1131.12
1131.22
1131.5
1131.53
1130.24
1130.24
1130
1130.05
1129.64
1129.57
1129.43
1129.39
1130.81
1130.97
1130.54
1130.77
1131.72
1132.3
1131.96
1132.61
1132.14
1132.74
1132.28
1132.96
1131.38
1131.95
1131.69
1132.34
1131.09
1131.64
1131.49
1132.12
1133.53
1134.21
1133.64
1134.32
1133.33
1133.95
1133.53
1134.17
1132.99
1133.47
1133.35
1133.88
1131.29
1130.45
1132.05
1132.62
1133.24
1130.56
1131.45
1132.35
1132.96
1133.63
1130.35
1131.14
1131.91
1132.64
1133.34
1134.84
1135.13
1135.19
1135.45
1134.51
1134.85
1134.97
1135.25
1133.96
1134.34
1134.6
1134.95
1130.74
1131.04
1131.71
1132.13
1132.6
1133.04
1133.32
1133.75
1134.27
1134.71
1130.49
1130.73
1131.37
1131.81
1132.21
1132.71
1133.03
1133.58
1134.08
1134.66
1130.98
1131.48
1130.63
1131.07
1130.11
1130.24
1129.8
1129.86
1131.51
1132.1
1131.85
1132.48
1130.33
1130.77
1130.13
1130.55
1129.54
1129.61
1129.36
1129.4
1131.19
1131.79
1130.99
1131.58
1132.51
1133.23
1133.75
1134.63
1132.79
1133.54
1133.93
1134.79
1132.25
1132.95
1133.57
1134.44
1132.01
1132.71
1133.31
1134.13
1135.2
1135.31
1135.55
1135.27
1135.3
1135.51
1134.99
1135.14
1135.39
1135.11
1135.16
1135.39
1134.57
1134.77
1135.05
1134.88
1134.96
1135.22
1131.41
1131.84
1132.3
1132.57
1132.94
1133.34
1133.45
1133.76
1134.11
1134.08
1134.34
1134.67
1134.7
1134.82
1135.12
1131.07
1131.55
1132.06
1132.39
1132.89
1133.4
1133.29
1133.73
1134.18
1134.02
1134.34
1134.74
1134.69
1134.85
1135.2
1129.45
1129.29
1129.31
1129.12
1129.88
1129.69
1129.72
1129.49
1129.34
1129.01
1129.31
1129
1129.25
1128.95
1129.19
1128.91
1128.97
1129.1
1128.89
1129.04
1128.9
1128.8
1128.96
1128.79
1129.3
1129.1
1128.89
1128.72
1128.77
1128.61
1128.74
1128.57
1128.68
1128.38
1128.73
1128.45
1128.64
1128.33
1128.65
1128.37
1128.6
1128.27
1128.54
1128.22
1128.48
1128.21
1128.34
1128.11
1129.08
1128.95
1128.91
1128.75
1129.53
1129.41
1129.33
1129.2
1128.61
1128.43
1128.76
1128.6
1128.74
1128.59
1128.57
1128.44
1129.13
1129.01
1128.95
1128.85
1128.47
1128.28
1128.31
1128.16
1128.37
1128.09
1128.21
1128.05
1128.49
1128.2
1128.36
1128.17
1128.25
1128
1128.09
1127.94
1128.11
1127.9
1127.97
1127.85
1128.68
1128.81
1128.4
1128.54
1128.67
1128.81
1128.39
1128.53
1128.67
1128.8
1128.36
1128.49
1129.2
1129.74
1128.87
1128.6
1128.32
1129.84
1129.31
1128.99
1128.73
1128.44
1129.64
1129.12
1128.75
1128.5
1128.29
1129.04
1129.37
1128.78
1129.1
1129.03
1129.34
1128.75
1129.05
1128.99
1129.28
1128.68
1128.96
1129.97
1130.22
1129.41
1129.66
1129.09
1129.35
1128.84
1129.11
1128.56
1128.83
1129.72
1129.86
1129.19
1129.33
1128.83
1129
1128.6
1128.81
1128.41
1128.68
1128.91
1128.95
1128.71
1128.7
1129.39
1129.42
1129.15
1129.1
1128.42
1128.48
1128.59
1128.7
1128.56
1128.5
1128.42
1128.34
1128.97
1128.88
1128.81
1128.7
1128.29
1128.31
1128.16
1128.16
1128.24
1128.38
1128.15
1128.37
1128.4
1128.57
1128.27
1128.52
1128.12
1128.22
1128.05
1128.24
1128.01
1128.1
1127.96
1128.12
1129.82
1130.26
1130.68
1129.65
1130.16
1130.57
1129.76
1130.21
1130.63
1129.58
1130.09
1130.52
1129.67
1130.11
1130.55
1129.47
1130
1130.46
1130.55
1130.98
1131.44
1130.01
1130.45
1130.92
1129.7
1130.16
1130.64
1129.49
1129.95
1130.41
1129.34
1129.9
1130.41
1130.13
1130.58
1131.11
1129.61
1130.08
1130.6
1129.33
1129.82
1130.36
1129.19
1129.72
1130.26
1129.22
1129.8
1130.36
1128.24
1128.42
1128.91
1129.83
1128.33
1128.52
1129.03
1129.95
1128.21
1128.39
1128.88
1129.81
1128.26
1128.46
1128.97
1129.91
1128.16
1128.35
1128.82
1129.73
1128.14
1128.36
1128.86
1129.78
1128.16
1128.4
1128.94
1129.89
1128.1
1128.38
1128.94
1129.89
1128.05
1128.28
1128.78
1129.69
1128.07
1128.32
1128.77
1129.59
1128.13
1128.34
1128.78
1129.63
1128.15
1128.38
1128.79
1129.57
1127.99
1128.25
1128.78
1129.72
1127.99
1128.26
1128.74
1129.58
1127.92
1128.21
1128.76
1129.7
1127.92
1128.22
1128.71
1129.55
1128.26
1128.41
1128.86
1129.72
1128.37
1128.5
1128.88
1129.64
1128.25
1128.41
1128.85
1129.71
1128.37
1128.5
1128.88
1129.63
1128.23
1128.4
1128.83
1129.66
1128.34
1128.49
1128.87
1129.61
1128.23
1128.41
1128.82
1129.6
1128.32
1128.49
1128.86
1129.58
1128.24
1128.44
1128.82
1129.54
1128.55
1128.65
1128.99
1129.53
1128.75
1128.84
1129.19
1129.69
1128.53
1128.64
1128.99
1129.52
1128.73
1128.83
1129.18
1129.69
1128.49
1128.62
1128.97
1129.51
1128.69
1128.81
1129.17
1129.68
1128.43
1128.59
1128.95
1129.49
1128.63
1128.78
1129.16
1129.67
1128.36
1128.55
1128.92
1129.47
1128.57
1128.75
1129.14
1129.66
1128.21
1128.47
1128.88
1129.45
1128.4
1128.66
1129.08
1129.61
1128.28
1128.51
1128.9
1129.46
1128.49
1128.7
1129.11
1129.63
1128.15
1128.43
1128.86
1129.44
1128.33
1128.61
1129.05
1129.59
1128.08
1128.39
1128.84
1129.42
1128.26
1128.57
1129.02
1129.57
1131.24
1132.39
1133.37
1134.17
1134.79
1131.32
1132.45
1133.43
1134.23
1134.85
1131.23
1132.38
1133.36
1134.17
1134.79
1131.3
1132.44
1133.42
1134.22
1134.84
1131.22
1132.38
1133.36
1134.16
1134.78
1131.25
1132.39
1133.38
1134.18
1134.8
1131.28
1132.42
1133.41
1134.21
1134.83
1131.26
1132.41
1133.4
1134.2
1134.83
1131.21
1132.37
1133.36
1134.16
1134.78
1131.27
1132.46
1133.45
1134.25
1134.87
1131.22
1132.39
1133.38
1134.18
1134.8
1131.29
1132.48
1133.46
1134.27
1134.89
1131.21
1132.37
1133.36
1134.16
1134.78
1131.27
1132.47
1133.46
1134.26
1134.88
1131.19
1132.36
1133.35
1134.16
1134.78
1131.27
1132.47
1133.46
1134.27
1134.89
1131.25
1132.41
1133.4
1134.2
1134.82
1131.34
1132.52
1133.5
1134.3
1134.92
1131.25
1132.42
1133.4
1134.2
1134.82
1131.33
1132.52
1133.5
1134.3
1134.92
1131.25
1132.43
1133.41
1134.21
1134.83
1131.33
1132.52
1133.51
1134.31
1134.93
1131.28
1132.46
1133.45
1134.25
1134.87
1131.35
1132.54
1133.53
1134.33
1134.95
1131.33
1132.52
1133.51
1134.31
1134.93
1136.65
1136.85
1136.56
1136.76
1136.4
1136.63
1136.21
1136.47
1136.01
1136.31
1135.71
1136.06
1135.87
1136.21
1135.56
1135.89
1135.4
1135.7
1138.84
1141.25
1143.29
1144.88
1145.98
1138.8
1141.23
1143.29
1144.9
1146.01
1138.8
1141.23
1143.28
1144.87
1145.97
1138.77
1141.22
1143.28
1144.89
1146
1138.72
1141.19
1143.25
1144.85
1145.95
1138.69
1141.18
1143.25
1144.87
1145.98
1138.62
1141.13
1143.21
1144.82
1145.92
1138.6
1141.12
1143.22
1144.84
1145.96
1138.5
1141.05
1143.15
1144.78
1145.88
1138.5
1141.05
1143.17
1144.81
1145.93
1138.24
1140.85
1143
1144.66
1145.78
1138.26
1140.88
1143.04
1144.7
1145.83