/*--------------------------------*- C++ -*----------------------------------*\
  =========                 |
  \\      /  F ield         | OpenFOAM: The Open Source CFD Toolbox
   \\    /   O peration     | Website:  https://openfoam.org
    \\  /    A nd           | Version:  13
     \\/     M anipulation  |
\*---------------------------------------------------------------------------*/
FoamFile
{
    format      ascii;
    class       volScalarField;
    location    "129.831886";
    object      T;
}
// * * * * * * * * * * * * * * * * * * * * * * * * * * * * * * * * * * * * * //

dimensions      [0 0 0 1 0 0 0];

internalField   nonuniform List<scalar> 
5712
(
980.347
980.147
979.81
979.501
978.983
978.672
977.813
977.564
978.021
977.73
978.938
978.642
979.598
979.315
980.087
979.873
978.751
978.358
978.22
977.675
977.334
976.826
976.85
976.206
981.089
982.301
980.873
982.003
980.586
981.745
980.25
981.341
979.442
980.059
978.876
979.656
981.057
980.393
977.554
976.576
977.029
976.303
976.269
975.452
975.642
975.023
978.769
977.745
978.182
977.411
979.728
978.736
983.686
984.496
983.108
983.945
983.124
984.143
982.447
983.379
982.303
983.686
981.278
982.553
980.492
981.75
979.607
980.882
978.479
978.307
977.63
977.553
976.603
976.377
975.937
975.709
979.257
979.52
980.266
980.329
976.913
976.927
976.266
976.406
975.335
975.147
974.768
974.665
978.435
978.85
977.709
978.309
980.85
982.391
981.47
983.214
981.949
983.536
982.322
984.14
979.948
981.441
980.771
982.477
979.156
980.624
980.222
981.9
985.631
987.425
985.925
987.714
985.106
986.77
985.645
987.348
984.212
985.484
985.164
986.562
979.694
977.468
981.71
983.231
984.868
977.763
980.115
982.512
984.14
985.92
977.218
979.315
981.347
983.269
985.142
989.083
989.869
990.021
990.725
988.245
989.15
989.457
990.218
986.79
987.805
988.493
989.401
978.251
979.049
980.822
981.927
983.188
984.342
985.083
986.232
987.599
988.763
977.576
978.22
979.925
981.085
982.131
983.462
984.328
985.773
987.097
988.629
978.884
980.195
977.942
979.104
976.581
976.927
975.745
975.919
980.276
981.838
981.197
982.856
977.141
978.309
976.629
977.743
975.071
975.234
974.589
974.699
979.434
981.03
978.916
980.476
982.932
984.841
986.222
988.556
983.671
985.673
986.71
988.997
982.247
984.099
985.752
988.05
981.6
983.47
985.07
987.244
990.061
990.358
990.982
990.245
990.324
990.887
989.524
989.906
990.569
989.842
989.954
990.563
988.415
988.94
989.686
989.229
989.433
990.119
980.032
981.162
982.372
983.095
984.074
985.137
985.423
986.253
987.182
987.102
987.787
988.673
988.748
989.053
989.86
979.125
980.388
981.754
982.62
983.939
985.292
985.017
986.169
987.372
986.955
987.794
988.848
988.731
989.14
990.072
974.811
974.404
974.454
973.932
975.95
975.445
975.538
974.914
974.528
973.645
974.43
973.607
974.295
973.506
974.122
973.379
973.554
973.895
973.345
973.743
973.367
973.086
973.527
973.057
974.418
973.888
973.326
972.887
973.018
972.594
972.925
972.493
972.758
971.973
972.906
972.161
972.662
971.849
972.702
971.944
972.579
971.686
972.394
971.571
972.256
971.522
971.885
971.27
973.845
973.482
973.387
972.976
975.043
974.725
974.499
974.152
972.604
972.116
973.002
972.558
972.935
972.537
972.484
972.149
973.982
973.657
973.48
973.222
972.21
971.73
971.8
971.387
971.944
971.225
971.542
971.099
972.263
971.5
971.928
971.423
971.624
970.98
971.203
970.819
971.27
970.719
970.904
970.577
972.761
973.112
972.045
972.418
972.763
973.134
971.997
972.385
972.765
973.101
971.922
972.271
974.167
975.58
973.276
972.578
971.826
975.85
974.449
973.608
972.923
972.134
975.327
973.953
972.968
972.3
971.743
973.736
974.604
973.053
973.898
973.698
974.525
972.957
973.769
973.591
974.37
972.77
973.528
976.198
976.855
974.715
975.384
973.862
974.552
973.213
973.919
972.473
973.188
975.537
975.912
974.13
974.509
973.174
973.634
972.555
973.126
972.07
972.789
973.381
973.49
972.862
972.819
974.664
974.729
974.035
973.905
972.101
972.251
972.546
972.822
972.464
972.302
972.078
971.876
973.547
973.302
973.112
972.818
971.745
971.791
971.401
971.411
971.622
971.974
971.38
971.956
972.03
972.491
971.699
972.357
971.289
971.548
971.105
971.605
971.01
971.23
970.861
971.295
975.789
976.966
978.074
975.36
976.69
977.802
975.636
976.827
977.96
975.172
976.511
977.671
975.412
976.58
977.731
974.866
976.269
977.507
977.749
978.875
980.096
976.302
977.472
978.721
975.489
976.712
977.983
974.915
976.135
977.364
974.533
976.008
977.357
976.615
977.83
979.213
975.252
976.493
977.882
974.492
975.812
977.243
974.143
975.535
976.979
974.199
975.746
977.229
971.616
972.08
973.385
975.828
971.835
972.336
973.687
976.152
971.523
972.006
973.315
975.781
971.664
972.199
973.563
976.036
971.399
971.911
973.165
975.557
971.347
971.926
973.267
975.711
971.389
972.037
973.474
975.98
971.252
971.981
973.477
976
971.108
971.726
973.034
975.456
971.151
971.815
973.01
975.187
971.315
971.866
973.046
975.292
971.383
971.977
973.085
975.135
970.941
971.626
973.038
975.55
970.95
971.676
972.942
975.171
970.77
971.52
972.983
975.482
970.774
971.555
972.859
975.078
971.654
972.063
973.247
975.545
971.96
972.3
973.307
975.313
971.628
972.051
973.218
975.502
971.948
972.305
973.306
975.294
971.591
972.042
973.171
975.388
971.885
972.282
973.286
975.249
971.582
972.07
973.142
975.228
971.826
972.267
973.258
975.166
971.613
972.143
973.165
975.074
972.436
972.714
973.617
975.044
972.97
973.209
974.133
975.47
972.377
972.682
973.592
975.017
972.909
973.179
974.115
975.457
972.272
972.626
973.559
974.993
972.803
973.128
974.088
975.434
972.118
972.541
973.495
974.936
972.658
973.054
974.044
975.401
971.918
972.429
973.418
974.874
972.488
972.968
973.996
975.368
971.533
972.213
973.314
974.826
972.047
972.715
973.838
975.26
971.722
972.322
973.369
974.854
972.267
972.843
973.918
975.312
971.363
972.111
973.263
974.803
971.845
972.595
973.766
975.203
971.2
972.006
973.193
974.746
971.659
972.479
973.689
975.143
979.58
982.618
985.217
987.342
988.988
979.77
982.775
985.367
987.49
989.135
979.559
982.607
985.21
987.337
988.983
979.737
982.753
985.35
987.475
989.121
979.517
982.589
985.198
987.327
988.974
979.6
982.635
985.24
987.368
989.016
979.677
982.715
985.323
987.454
989.103
979.633
982.683
985.299
987.435
989.085
979.491
982.574
985.189
987.321
988.969
979.647
982.8
985.425
987.557
989.205
979.525
982.629
985.244
987.375
989.022
979.695
982.851
985.474
987.605
989.251
979.489
982.574
985.193
987.328
988.977
979.665
982.824
985.453
987.588
989.236
979.443
982.544
985.171
987.309
988.961
979.655
982.828
985.464
987.602
989.252
979.602
982.69
985.296
987.421
989.067
979.827
982.961
985.571
987.694
989.337
979.597
982.695
985.304
987.431
989.076
979.822
982.962
985.573
987.698
989.341
979.602
982.719
985.333
987.461
989.107
979.824
982.975
985.59
987.715
989.359
979.669
982.817
985.437
987.566
989.212
979.863
983.023
985.64
987.767
989.412
979.804
982.963
985.584
987.713
989.358
993.907
994.428
993.68
994.212
993.267
993.856
992.744
993.432
992.23
993.022
991.431
992.352
991.842
992.74
991.022
991.911
990.592
991.403
999.724
1006.13
1011.53
1015.76
1018.65
999.627
1006.07
1011.54
1015.79
1018.74
999.623
1006.07
1011.5
1015.73
1018.63
999.537
1006.04
1011.51
1015.79
1018.72
999.419
1005.96
1011.42
1015.67
1018.58
999.34
1005.93
1011.44
1015.73
1018.68
999.143
1005.79
1011.31
1015.59
1018.51
999.088
1005.78
1011.33
1015.65
1018.61
998.824
1005.58
1011.16
1015.48
1018.41
998.818
1005.6
1011.21
1015.56
1018.53
998.134
1005.07
1010.77
1015.16
1018.13
998.2
1005.14
1010.86
1015.27
1018.27
998.48
1005.33
1010.98
1015.33
1018.28
998.526
1005.39
1011.06
1015.44
1018.42
997.786
1004.8
1010.56
1014.99
1017.97
997.829
1004.85
1010.63
1015.08
1018.09
997.427
1004.51
1010.33
1014.8
1017.8
997.419
1004.53
1010.37
1014.87
1017.9
973.611
974.426
975.086
974.154
975.245
975.128
975.102
974.944
975.383
975.164
976.464
976.204
977.009
976.717
976.194
975.951
975.868
975.702
975.793
975.665
974.167
973.905
976.023
976.902
977.214
977.28
976.471
976.334
977.397
976.074
978.291
979.666
976.239
976.681
977.735
976.496
976.994
977.046
975.429
975.264
975.785
975.557
975.324
975.077
975.29
975.627
976.809
976.564
976.177
975.935
974.53
974.159
974.706
974.393
974.717
974.852
975.375
976.137
975.375
972.727
971.977
971.647
971.661
972.032
972.851
972.236
971.954
972.034
972.519
975.331
975.006
974.969
975.24
975.834
976.236
975.941
975.933
976.226
976.831
976.538
976.229
976.207
976.489
977.086
976.616
976.321
976.314
976.607
977.211
975.787
975.47
975.441
975.718
976.315
974.759
973.793
973.276
973.152
973.411
975.718
974.678
974.133
974.009
974.316
974.97
974.252
973.86
973.862
974.307
976.744
975.747
975.244
975.166
975.551
978.154
977.134
976.624
976.543
976.929
975.377
974.867
974.655
974.791
975.313
975.669
975.021
974.69
974.739
975.215
976.756
976.133
975.821
975.886
976.368
975.697
975.249
975.093
975.271
975.814
976.141
975.639
975.432
975.572
976.096
976.263
975.83
975.687
975.875
976.422
973.993
973.17
972.744
972.682
972.999
974.297
973.696
973.403
973.474
973.959
974.97
974.507
974.337
974.505
975.044
974.781
974.362
974.232
974.431
974.987
974.482
973.995
973.803
973.954
974.483
974.284
973.849
973.706
973.894
974.444
974.555
974.182
974.099
974.334
974.91
974.898
974.529
974.449
974.686
975.263
976.087
975.724
975.647
975.886
976.461
975.864
975.527
975.476
975.736
976.323
975.416
975.012
974.895
975.104
975.664
975.2
974.824
974.736
974.967
975.54
973.136
972.369
972.012
972.004
972.352
973.175
972.596
972.336
972.433
972.93
973.563
972.885
972.543
972.56
972.964
973.524
973.022
972.821
972.963
973.489
973.899
973.441
973.276
973.448
973.989
973.905
973.329
973.054
973.138
973.629
974.634
974.252
974.16
974.388
974.96
975.433
975.094
975.042
975.301
975.888
974.611
974.204
974.088
974.296
974.858
974.272
974.687
974.307
974.766
973.203
973.685
973.184
973.611
974.345
974.4
974.789
974.701
973.215
973.238
973.661
973.528
975.393
976.485
975.762
976.81
975.398
976.389
975.834
976.805
975.857
975.469
975.629
975.375
976.239
976.627
975.334
975.799
975.131
975.649
974.244
974.737
973.954
974.437
976.385
976.888
976.077
976.66
977.179
977.794
977.478
978.328
977.754
978.561
977.411
978.426
977.774
978.67
977.24
978.627
977.483
978.709
977.995
979.251
978.708
979.993
974.739
975.014
974.952
975.267
973.328
973.413
973.557
973.63
976.285
977.093
976.098
976.828
975.294
975.574
975.737
975.955
973.891
973.91
974.298
974.25
976.632
977.414
977.116
977.831
977.661
979.2
978.98
980.739
977.544
979.208
978.755
980.612
977.994
979.465
979.292
981
978.51
979.96
979.729
981.406
977.574
978.103
978.526
979.359
977.498
977.931
978.674
979.472
977.351
977.583
978.938
979.596
974.687
973.228
976.113
977.634
979.552
973.182
974.569
975.994
977.599
979.899
973.299
974.865
976.662
978.622
980.637
978.947
979.307
981.523
982.264
978.553
978.914
981.366
982.106
977.967
978.262
981.173
981.918
973.205
973.389
974.686
974.912
976.229
976.461
978.085
978.391
981.411
982.21
973.296
973.48
975.02
975.503
976.977
977.602
979.243
980.001
982.301
983.276
975.411
976.261
975.631
976.5
973.449
973.493
973.633
973.621
977.844
979.114
977.567
978.769
975.816
976.819
976.194
977.265
973.856
973.899
974.189
974.268
978.036
979.464
978.458
979.974
980.489
982.15
983.857
985.979
980.058
981.667
983.256
985.238
980.814
982.537
984.363
986.552
981.116
982.954
984.627
986.776
979.415
979.709
981.72
981.728
979.038
979.364
981.619
981.592
978.474
978.959
981.515
981.508
973.778
974.477
975.338
975.995
976.833
977.397
978.685
979.211
981.688
981.625
973.86
974.609
976.156
976.841
978.17
978.669
980.196
980.383
982.272
982.046
971.418
971.383
971.849
971.663
972.219
972.184
972.675
972.479
970.847
970.43
971.253
970.821
970.861
970.476
971.301
970.887
971.228
970.853
971.179
970.898
970.564
970.916
972.066
972.548
972.879
973.351
971.754
972.305
971.594
972.08
971.426
971.926
970.168
969.974
970.548
970.332
970.179
969.945
970.576
970.307
970.22
969.911
970.519
970.163
970.977
970.57
971.416
970.923
971.235
971.194
971.439
971.334
972.143
972.118
972.362
972.298
970.815
970.674
970.632
970.564
971.736
971.547
972.089
971.815
972.677
972.546
973.054
972.848
971.095
970.856
971.428
971.093
970.359
970.013
970.284
970.084
970.196
969.91
970.196
970.025
970.622
970.211
970.438
970.2
970.932
970.456
970.646
970.367
970.004
970.074
969.837
969.951
970.045
970.12
969.843
969.968
970.131
970.194
969.87
969.981
971.157
972.048
970.568
970.164
969.927
972.056
971.203
970.625
970.225
970.007
972.025
971.139
970.533
970.181
970.032
970.353
970.836
970.286
970.81
970.357
970.808
970.262
970.764
970.373
970.774
970.226
970.687
972.055
972.234
971.202
971.43
970.673
970.964
970.327
970.67
970.192
970.611
971.967
972.021
971.096
971.186
970.541
970.725
970.25
970.546
970.191
970.606
971.055
970.989
971.217
971.057
971.966
971.822
972.162
971.901
970.647
970.667
970.516
970.61
971.483
971.251
971.752
971.531
972.449
972.119
972.748
972.432
970.87
970.841
971.11
971.098
970.352
970.563
970.334
970.731
970.255
970.524
970.241
970.668
970.518
970.703
970.473
970.874
970.743
970.941
970.652
971.059
971.425
971.973
971.571
972.221
971.356
971.944
971.512
972.2
971.296
971.942
971.42
972.216
972.622
973.325
971.863
972.585
971.426
972.157
971.181
971.933
971.349
972.285
972.323
973.134
971.551
972.403
971.195
972.091
971.139
972.077
971.427
972.486
970.232
971.148
972.75
975.399
970.563
971.478
973.099
975.753
970.21
971.121
972.717
975.385
970.527
971.431
973.037
975.682
970.192
971.096
972.612
975.194
970.389
971.278
972.819
975.408
970.746
971.601
973.172
975.774
971.018
971.822
973.367
975.924
970.278
971.162
972.641
975.181
970.44
971.332
972.665
974.931
970.229
971.131
972.539
974.949
970.409
971.318
972.627
974.813
970.412
971.265
972.784
975.366
970.513
971.378
972.725
975.002
970.587
971.396
972.895
975.418
970.626
971.453
972.785
975.02
970.125
971.039
972.55
975.071
970.279
971.186
972.549
974.786
970.145
971.057
972.545
975.05
970.311
971.219
972.569
974.786
970.195
971.105
972.537
974.969
970.351
971.261
972.595
974.778
970.294
971.205
972.553
974.837
970.407
971.32
972.618
974.736
970.434
971.35
972.621
974.7
970.638
971.54
972.821
974.44
971.108
972.009
973.311
974.822
970.636
971.541
972.817
974.431
971.107
972.012
973.315
974.826
970.641
971.552
972.831
974.446
971.113
972.027
973.332
974.836
970.648
971.567
972.833
974.443
971.121
972.045
973.348
974.849
970.668
971.595
972.842
974.439
971.141
972.079
973.377
974.874
970.808
971.723
972.964
974.544
971.234
972.17
973.453
974.949
970.724
971.651
972.899
974.489
971.168
972.112
973.405
974.9
970.921
971.812
973.046
974.622
971.348
972.262
973.529
975.011
971.052
971.906
973.12
974.684
971.495
972.369
973.611
975.079
979.326
982.462
985.119
987.276
988.936
979.527
982.624
985.272
987.426
989.085
979.326
982.465
985.121
987.276
988.936
979.524
982.622
985.268
987.42
989.077
979.312
982.463
985.12
987.274
988.933
979.424
982.526
985.171
987.322
988.98
979.554
982.639
985.276
987.422
989.077
979.586
982.654
985.281
987.422
989.075
979.332
982.476
985.128
987.279
988.937
979.506
982.714
985.371
987.521
989.177
979.338
982.515
985.173
987.327
988.985
979.527
982.75
985.411
987.562
989.218
979.379
982.507
985.151
987.299
988.955
979.568
982.766
985.417
987.563
989.217
979.405
982.52
985.156
987.299
988.953
979.621
982.808
985.451
987.593
989.245
979.335
982.528
985.195
987.353
989.013
979.552
982.796
985.468
987.625
989.283
979.347
982.543
985.209
987.367
989.026
979.559
982.804
985.475
987.632
989.29
979.376
982.583
985.248
987.404
989.062
979.584
982.831
985.5
987.655
989.312
979.468
982.696
985.361
987.515
989.172
979.651
982.896
985.561
987.714
989.37
979.618
982.852
985.515
987.666
989.322
987.004
987.601
987.085
987.695
987.271
987.897
987.568
988.182
988.05
988.583
989.281
989.977
988.731
989.336
989.752
990.518
990.175
990.95
994.67
1002.49
1008.8
1013.57
1016.73
994.495
1002.4
1008.79
1013.59
1016.81
994.745
1002.54
1008.84
1013.6
1016.75
994.594
1002.47
1008.83
1013.64
1016.84
994.898
1002.65
1008.91
1013.66
1016.8
994.742
1002.57
1008.9
1013.7
1016.89
995.137
1002.81
1009.03
1013.75
1016.88
994.962
1002.72
1009.01
1013.78
1016.96
995.476
1003.04
1009.2
1013.88
1017
995.246
1002.91
1009.14
1013.89
1017.06
996.291
1003.61
1009.62
1014.22
1017.29
996.139
1003.52
1009.59
1014.24
1017.35
995.877
1003.31
1009.4
1014.04
1017.14
995.656
1003.18
1009.34
1014.04
1017.18
996.682
1003.91
1009.86
1014.41
1017.46
996.599
1003.87
1009.85
1014.44
1017.52
997.062
1004.22
1010.1
1014.61
1017.63
997.018
1004.21
1010.12
1014.66
1017.72
972.995
973.767
973.242
972.436
971.437
971.851
971.428
971.902
972.231
972.722
972.23
972.652
980.178
980.051
979.732
979.223
978.537
977.712
980.235
980.114
979.811
979.335
978.709
977.974
980.513
981.017
980.37
980.852
980.01
980.445
979.432
979.778
978.658
978.926
977.76
978.049
976.829
975.998
975.291
974.715
974.289
973.974
977.192
976.437
975.761
975.197
974.76
974.451
979.559
979.315
979.357
979.687
980.307
979.431
979.185
979.226
979.555
980.174
979.109
978.859
978.897
979.224
979.842
978.595
978.34
978.372
978.696
979.313
977.901
977.637
977.661
977.979
978.594
977.063
976.786
976.797
977.105
977.717
979.616
979.37
979.412
979.741
980.36
979.494
979.247
979.286
979.615
980.233
979.187
978.936
978.972
979.298
979.916
978.705
978.449
978.479
978.802
979.418
978.071
977.806
977.828
978.144
978.758
977.324
977.046
977.055
977.362
977.972
979.896
979.652
979.695
980.025
980.644
980.401
980.158
980.201
980.531
981.149
979.751
979.505
979.547
979.876
980.495
980.235
979.99
980.032
980.361
980.978
979.389
979.14
979.178
979.505
980.123
979.824
979.576
979.614
979.941
980.558
978.805
978.551
978.584
978.907
979.524
979.152
978.897
978.929
979.252
979.868
978.022
977.759
977.783
978.101
978.716
978.289
978.024
978.047
978.362
978.976
977.112
976.835
976.845
977.153
977.764
977.399
977.12
977.128
977.433
978.042
976.163
975.866
975.857
976.149
976.754
975.305
974.979
974.942
975.213
975.807
974.561
974.195
974.119
974.36
974.939
973.934
973.515
973.389
973.592
974.151
973.447
972.974
972.802
972.971
973.511
973.091
972.587
972.392
972.542
973.073
976.526
976.23
976.221
976.513
977.117
975.748
975.427
975.394
975.668
976.263
975.045
974.692
974.628
974.879
975.463
974.447
974.059
973.962
974.187
974.758
973.978
973.558
973.432
973.636
974.195
973.65
973.213
973.072
973.265
973.82
980.11
979.846
979.389
978.743
977.917
976.95
980.167
979.911
979.472
978.862
978.107
977.252
980.442
980.942
980.156
980.628
979.654
980.069
978.929
979.247
978.008
978.24
976.946
977.173
975.936
975.018
974.299
973.838
973.676
973.752
976.376
975.573
974.924
974.484
974.276
974.279
979.491
979.247
979.289
979.62
980.24
979.227
978.981
979.023
979.354
979.974
978.767
978.519
978.559
978.889
979.509
978.116
977.864
977.901
978.228
978.849
977.284
977.025
977.056
977.379
977.999
976.306
976.038
976.058
976.375
976.993
979.548
979.303
979.345
979.675
980.294
979.291
979.045
979.085
979.415
980.035
978.849
978.6
978.639
978.968
979.587
978.235
977.981
978.016
978.342
978.962
977.472
977.212
977.24
977.562
978.18
976.608
976.337
976.356
976.67
977.286
979.825
979.581
979.624
979.955
980.575
980.326
980.084
980.127
980.457
981.075
979.538
979.293
979.336
979.666
980.286
980.011
979.767
979.81
980.14
980.758
979.032
978.785
978.826
979.156
979.776
979.449
979.203
979.244
979.573
980.192
978.304
978.053
978.089
978.417
979.037
978.622
978.371
978.407
978.734
979.353
977.375
977.117
977.148
977.472
978.092
977.607
977.349
977.379
977.702
978.32
976.303
976.036
976.057
976.375
976.993
976.531
976.262
976.283
976.599
977.216
975.278
974.993
974.999
975.305
975.918
974.338
974.03
974.013
974.302
974.907
973.587
973.244
973.194
973.457
974.05
973.077
972.684
972.587
972.814
973.388
972.851
972.401
972.253
972.441
972.993
972.876
972.382
972.196
972.354
972.889
975.717
975.431
975.435
975.739
976.35
974.895
974.588
974.571
974.859
975.463
974.22
973.884
973.839
974.106
974.7
973.747
973.376
973.298
973.539
974.12
973.504
973.098
972.986
973.202
973.77
973.482
973.05
972.915
973.113
973.67
973.782
973.605
974.897
975.932
976.006
976.242
975.29
973.164
973.466
973.215
974.138
973.908
973.803
974.409
974.556
974.934
973.075
973.066
973.767
973.825
973.399
973.509
974.055
974.192
975.138
975.128
974.363
974.347
973.405
973.333
973.02
973.237
973.321
973.049
973.983
974.804
973.805
972.367
971.653
971.347
971.383
971.774
972.565
971.967
971.702
971.795
972.29
974.221
973.918
973.906
974.199
974.807
975.276
974.995
975.004
975.312
975.927
975.346
975.059
975.062
975.365
975.977
975.589
975.31
975.321
975.631
976.246
974.623
974.33
974.326
974.626
975.237
971.92
971.271
970.997
971.061
971.454
972.261
971.639
971.392
971.485
971.916
972.313
971.802
971.603
971.753
972.283
973.065
972.512
972.315
972.452
972.954
973.153
972.766
972.674
972.907
973.484
972.978
972.532
972.388
972.58
973.135
973.687
973.333
973.271
973.526
974.114
973.819
973.448
973.37
973.611
974.192
974.225
973.882
973.831
974.092
974.684
971.855
971.222
970.96
971.033
971.442
972.213
971.74
971.572
971.745
972.289
973.026
972.654
972.575
972.817
973.399
973.101
972.746
972.683
972.938
973.527
972.63
972.231
972.128
972.352
972.924
972.763
972.387
972.304
972.543
973.124
973.346
973.007
972.959
973.225
973.82
973.494
973.166
973.13
973.404
974.004
974.453
974.138
974.113
974.394
974.996
974.453
974.15
974.137
974.428
975.035
973.656
973.318
973.272
973.538
974.132
973.65
973.323
973.288
973.562
974.162
972.084
971.414
971.131
971.185
971.59
972.384
971.847
971.63
971.762
972.282
971.981
971.414
971.175
971.279
971.741
972.408
971.955
971.804
971.99
972.541
972.547
972.142
972.033
972.252
972.822
972.187
971.707
971.529
971.694
972.233
973.274
972.934
972.886
973.151
973.746
974.125
973.818
973.801
974.09
974.696
973.083
972.73
972.67
972.926
973.516
974.122
973.551
973.33
973.434
973.833
974.599
974.14
974.189
973.048
973.028
974.238
974.326
973.078
973.121
975.309
976.527
975.318
976.416
975.428
975.365
976.215
974.113
974.168
973.008
972.982
974.221
974.307
973.046
973.107
975.38
976.671
975.385
976.525
975.487
975.392
976.307
974.134
974.192
973.001
972.968
974.248
974.337
973.048
973.11
975.446
977.007
975.45
976.814
975.55
975.447
976.548
974.35
974.406
973.189
973.155
974.465
974.569
973.237
973.308
975.747
977.394
975.736
977.186
975.817
975.696
976.865
974.726
974.778
973.567
973.534
974.833
974.955
973.612
973.679
976.13
977.667
976.11
977.5
976.172
976.075
977.187
975.395
975.441
974.257
974.225
975.482
975.58
974.297
974.354
976.722
978.143
976.69
977.985
976.737
976.635
977.668
971.277
971.269
972.067
972.066
971.284
971.294
972.081
972.101
970.696
970.249
970.723
970.318
970.729
970.801
970.452
971.227
971.228
972.022
972.013
971.257
971.283
972.048
972.072
970.622
970.252
970.664
970.335
970.699
970.795
970.474
971.206
971.219
972.007
971.989
971.264
971.305
972.046
972.087
970.662
970.406
970.714
970.481
970.776
970.874
970.609
971.394
971.414
972.191
972.168
971.469
971.527
972.235
972.275
970.9
970.753
970.96
970.822
971.044
971.161
970.943
971.791
971.815
972.577
972.553
971.884
971.965
972.621
972.665
971.343
971.261
971.408
971.315
971.503
971.63
971.416
972.516
972.54
973.284
973.261
972.609
972.677
973.327
973.367
972.077
971.921
972.138
971.979
972.216
972.323
972.081
980.384
980.194
979.818
979.508
978.989
978.678
977.817
977.567
978.026
977.734
978.945
978.648
979.606
979.323
980.132
979.928
978.756
978.36
978.223
977.678
977.337
976.828
976.853
976.208
981.117
982.321
980.91
982.033
980.592
981.75
980.255
981.345
979.445
980.063
978.879
979.659
981.061
980.397
977.557
976.578
977.031
976.304
976.271
975.453
975.644
975.024
978.771
977.747
978.185
977.412
979.731
978.737
983.704
984.514
983.135
983.972
983.127
984.145
982.45
983.381
982.305
983.688
981.28
982.555
980.494
981.751
979.608
980.884
978.481
978.309
977.632
977.554
976.605
976.378
975.939
975.711
979.259
979.522
980.268
980.331
976.914
976.928
976.267
976.407
975.336
975.148
974.769
974.666
978.437
978.851
977.71
978.31
980.852
982.393
981.471
983.215
981.951
983.538
982.324
984.141
979.95
981.443
980.772
982.478
979.157
980.625
980.223
981.901
985.653
987.449
985.941
987.73
985.107
986.771
985.647
987.35
984.214
985.485
985.166
986.564
979.695
977.469
981.712
983.233
984.869
977.764
980.116
982.514
984.141
985.921
977.219
979.317
981.349
983.27
985.144
989.109
989.895
990.036
990.738
988.245
989.149
989.458
990.218
986.791
987.805
988.494
989.402
978.252
979.05
980.823
981.927
983.189
984.343
985.084
986.233
987.6
988.764
977.577
978.221
979.926
981.086
982.132
983.463
984.329
985.774
987.098
988.63
978.885
980.197
977.943
979.105
976.582
976.927
975.746
975.92
980.277
981.839
981.199
982.857
977.142
978.31
976.63
977.744
975.072
975.235
974.59
974.7
979.435
981.031
978.917
980.477
982.933
984.843
986.223
988.557
983.673
985.674
986.711
988.998
982.248
984.1
985.753
988.051
981.601
983.471
985.07
987.245
990.084
990.378
991
990.26
990.337
990.899
989.524
989.906
990.57
989.843
989.956
990.564
988.415
988.94
989.686
989.23
989.434
990.12
980.032
981.162
982.373
983.096
984.074
985.138
985.423
986.254
987.183
987.103
987.788
988.673
988.749
989.054
989.861
979.126
980.388
981.755
982.621
983.94
985.292
985.017
986.17
987.373
986.956
987.795
988.848
988.732
989.141
990.073
974.812
974.405
974.455
973.933
975.952
975.446
975.539
974.916
974.54
973.659
974.449
973.626
974.296
973.506
974.121
973.379
973.554
973.895
973.345
973.744
973.367
973.086
973.528
973.057
974.419
973.889
973.327
972.887
973.019
972.594
972.926
972.493
972.769
971.981
972.923
972.175
972.663
971.849
972.702
971.944
972.579
971.686
972.394
971.571
972.256
971.523
971.886
971.27
973.846
973.483
973.388
972.977
975.044
974.726
974.5
974.153
972.605
972.116
973.003
972.559
972.936
972.538
972.485
972.149
973.983
973.658
973.481
973.222
972.21
971.73
971.8
971.387
971.944
971.225
971.542
971.1
972.264
971.501
971.928
971.423
971.625
970.981
971.203
970.82
971.27
970.719
970.905
970.577
972.767
973.115
972.048
972.419
972.763
973.135
971.998
972.386
972.765
973.102
971.922
972.271
974.168
975.581
973.276
972.578
971.826
975.851
974.449
973.609
972.924
972.135
975.328
973.954
972.968
972.301
971.744
973.738
974.608
973.054
973.899
973.699
974.525
972.957
973.769
973.591
974.37
972.771
973.528
976.199
976.855
974.716
975.385
973.862
974.553
973.213
973.919
972.474
973.188
975.538
975.913
974.131
974.509
973.175
973.635
972.555
973.126
972.071
972.79
973.382
973.491
972.863
972.82
974.665
974.73
974.036
973.905
972.102
972.252
972.547
972.823
972.464
972.303
972.079
971.876
973.548
973.303
973.113
972.818
971.745
971.791
971.402
971.411
971.623
971.975
971.381
971.956
972.031
972.491
971.7
972.357
971.29
971.548
971.106
971.606
971.01
971.23
970.862
971.296
975.794
976.972
978.08
975.362
976.693
977.805
975.636
976.827
977.96
975.173
976.512
977.672
975.413
976.58
977.731
974.867
976.27
977.508
977.75
978.875
980.096
976.303
977.473
978.722
975.489
976.712
977.983
974.916
976.136
977.364
974.533
976.009
977.358
976.616
977.831
979.213
975.252
976.494
977.883
974.493
975.812
977.243
974.143
975.536
976.98
974.2
975.746
977.229
971.622
972.085
973.39
975.834
971.846
972.345
973.696
976.162
971.523
972.006
973.315
975.781
971.664
972.199
973.562
976.035
971.399
971.911
973.165
975.557
971.347
971.926
973.266
975.71
971.389
972.037
973.474
975.98
971.252
971.981
973.476
976
971.108
971.726
973.034
975.456
971.151
971.815
973.01
975.187
971.315
971.866
973.046
975.292
971.383
971.977
973.085
975.135
970.941
971.626
973.038
975.549
970.95
971.676
972.942
975.171
970.771
971.52
972.983
975.482
970.774
971.555
972.859
975.078
971.656
972.064
973.249
975.549
971.96
972.3
973.307
975.315
971.628
972.051
973.219
975.502
971.949
972.305
973.306
975.294
971.592
972.042
973.171
975.388
971.886
972.283
973.286
975.249
971.583
972.07
973.142
975.228
971.826
972.268
973.258
975.166
971.614
972.143
973.165
975.074
972.434
972.711
973.615
975.044
972.968
973.206
974.13
975.467
972.378
972.682
973.592
975.017
972.91
973.179
974.115
975.458
972.272
972.626
973.559
974.993
972.804
973.128
974.088
975.434
972.118
972.541
973.495
974.936
972.659
973.054
974.044
975.401
971.918
972.429
973.418
974.874
972.489
972.968
973.996
975.368
971.533
972.213
973.314
974.826
972.048
972.715
973.838
975.26
971.723
972.322
973.369
974.854
972.268
972.843
973.918
975.312
971.363
972.111
973.263
974.803
971.845
972.596
973.766
975.203
971.2
972.007
973.193
974.746
971.66
972.479
973.689
975.143
979.582
982.619
985.218
987.342
988.988
979.776
982.779
985.371
987.494
989.138
979.559
982.607
985.21
987.336
988.983
979.736
982.752
985.349
987.474
989.12
979.517
982.588
985.198
987.327
988.974
979.6
982.634
985.239
987.368
989.015
979.676
982.715
985.323
987.454
989.102
979.633
982.683
985.298
987.434
989.084
979.49
982.573
985.188
987.32
988.969
979.647
982.799
985.424
987.557
989.204
979.525
982.628
985.244
987.374
989.022
979.695
982.851
985.474
987.604
989.251
979.488
982.574
985.193
987.327
988.977
979.664
982.824
985.453
987.587
989.236
979.443
982.543
985.17
987.309
988.96
979.654
982.828
985.463
987.601
989.251
979.601
982.688
985.294
987.419
989.064
979.825
982.958
985.567
987.691
989.334
979.598
982.695
985.305
987.431
989.076
979.822
982.962
985.574
987.698
989.341
979.602
982.719
985.333
987.461
989.107
979.824
982.975
985.59
987.715
989.359
979.669
982.817
985.436
987.565
989.212
979.863
983.022
985.64
987.767
989.412
979.804
982.963
985.584
987.713
989.358
993.92
994.438
993.681
994.213
993.267
993.857
992.745
993.433
992.231
993.023
991.432
992.353
991.843
992.741
991.023
991.912
990.593
991.404
999.731
1006.13
1011.53
1015.76
1018.66
999.631
1006.07
1011.54
1015.79
1018.74
999.623
1006.07
1011.5
1015.73
1018.63
999.538
1006.04
1011.51
1015.79
1018.72
999.419
1005.96
1011.42
1015.67
1018.58
999.341
1005.93
1011.44
1015.73
1018.68
999.144
1005.79
1011.31
1015.59
1018.51
999.089
1005.78
1011.33
1015.65
1018.61
998.824
1005.58
1011.16
1015.48
1018.41
998.818
1005.6
1011.21
1015.56
1018.53
998.135
1005.07
1010.77