/*--------------------------------*- C++ -*----------------------------------*\
  =========                 |
  \\      /  F ield         | OpenFOAM: The Open Source CFD Toolbox
   \\    /   O peration     | Website:  https://openfoam.org
    \\  /    A nd           | Version:  12
     \\/     M anipulation  |
\*---------------------------------------------------------------------------*/
FoamFile
{
    format      ascii;
    class       volScalarField;
    location    "395";
    object      T;
}
// * * * * * * * * * * * * * * * * * * * * * * * * * * * * * * * * * * * * * //

dimensions      [];

internalField   nonuniform List<scalar> 
4480
(
4.85469e-07
3.4068e-05
0.00739759
0.0649128
0.170604
0.286895
0.393513
0.483957
0.558023
0.617739
0.665612
0.703963
0.73473
0.759473
0.779408
0.795483
0.808429
0.818818
0.827091
0.833591
0.838595
0.842315
0.844924
0.846553
0.847313
0.84729
0.846556
0.845438
0.844306
0.843153
0.841977
0.84077
0.839523
0.838233
0.836891
0.835494
0.834034
0.832503
0.830892
0.829198
0.827413
0.825523
0.823522
0.821405
0.819158
0.816771
0.814233
0.811539
0.80867
0.805613
0.802363
0.798909
0.795227
0.79131
0.787144
0.78271
0.778002
0.773004
0.767694
0.762066
0.756096
0.749775
0.743085
0.736016
0.728542
0.720663
0.712349
0.703599
0.694381
0.684698
0.674519
0.663833
0.652622
0.640866
0.628543
0.615629
0.602099
0.587921
0.573061
0.557479
0.541134
0.523982
0.50598
0.487184
0.467596
0.447219
0.426081
0.404244
0.381806
0.358904
0.335715
0.312453
0.28936
0.266696
0.24473
0.223719
0.203906
0.185502
0.168677
0.15356
0.140232
0.128733
0.119063
0.111199
0.105094
0.100694
0.0979509
0.0968279
0.0973118
0.0994222
0.103217
0.108799
0.116319
0.125977
0.13802
0.15274
0.170451
0.191484
0.216161
0.244867
0.278363
0.318335
0.367603
0.432674
0.538249
0.700038
0.820449
0.917418
0.900963
0.764195
0.642611
0.481546
0.35353
0.262226
0.189165
0.129572
0.0815873
0.0443989
0.0184045
0.00372232
2.11307e-07
0.00126285
0.0537695
0.21302
0.393586
0.544452
0.6572
0.738084
0.795526
0.836522
0.866141
0.887877
0.9041
0.916399
0.925842
0.933177
0.938913
0.943413
0.946937
0.949679
0.951782
0.953345
0.954455
0.95517
0.955539
0.955597
0.955374
0.954747
0.953632
0.952076
0.950126
0.947827
0.945225
0.94236
0.939267
0.935984
0.932541
0.928966
0.92528
0.921504
0.917658
0.913754
0.909797
0.905802
0.901773
0.897709
0.893614
0.889486
0.885321
0.881116
0.876863
0.872563
0.868199
0.863767
0.85926
0.854663
0.849976
0.845182
0.840273
0.835244
0.830076
0.824773
0.819312
0.813693
0.807906
0.801948
0.795802
0.789463
0.782929
0.776194
0.769246
0.762083
0.754698
0.747087
0.739239
0.731154
0.722824
0.714239
0.705405
0.696306
0.686935
0.677296
0.66737
0.657178
0.646732
0.636016
0.62503
0.613777
0.60225
0.590459
0.578411
0.566119
0.553608
0.540914
0.528083
0.515169
0.502257
0.489432
0.476809
0.464521
0.452718
0.441563
0.431243
0.421952
0.413904
0.407309
0.402395
0.39938
0.39849
0.399943
0.40395
0.410706
0.420402
0.433199
0.449234
0.468613
0.491398
0.517621
0.547293
0.580473
0.617375
0.658461
0.704298
0.755334
0.811223
0.867515
0.915164
0.947998
0.928368
0.843347
0.75387
0.657028
0.557679
0.459456
0.363897
0.272829
0.188632
0.114696
0.0556534
0.0165431
4.50965e-05
0.0126401
0.164946
0.400361
0.595107
0.727183
0.811108
0.863871
0.897561
0.919719
0.934833
0.945556
0.953437
0.959407
0.964029
0.967665
0.970552
0.972849
0.974675
0.976114
0.977232
0.978076
0.978688
0.979098
0.979329
0.979399
0.979322
0.97907
0.978598
0.977914
0.977018
0.975908
0.974585
0.973042
0.971289
0.969323
0.967154
0.964789
0.96224
0.959517
0.956634
0.953602
0.950438
0.947153
0.943758
0.94027
0.936694
0.933043
0.929322
0.925542
0.921709
0.917825
0.913892
0.909912
0.905892
0.901824
0.897716
0.89356
0.889356
0.885104
0.8808
0.876443
0.872025
0.867551
0.863014
0.85841
0.853739
0.848997
0.844179
0.83929
0.834315
0.829264
0.824129
0.81891
0.813599
0.808204
0.802721
0.797143
0.791474
0.785719
0.779866
0.773927
0.767891
0.761772
0.755568
0.749295
0.742958
0.736558
0.730103
0.72361
0.717087
0.710552
0.704029
0.697534
0.691102
0.684768
0.67857
0.672556
0.666786
0.661324
0.656242
0.651627
0.647582
0.644205
0.641624
0.639968
0.639368
0.639974
0.641937
0.645395
0.650493
0.657355
0.666094
0.676789
0.689491
0.704206
0.720912
0.739534
0.759971
0.782101
0.805776
0.830795
0.856804
0.883133
0.908672
0.931695
0.94988
0.960297
0.945871
0.891214
0.830516
0.762013
0.684544
0.597861
0.502605
0.400567
0.295241
0.192658
0.102047
0.0346733
0.000831931
0.0579657
0.327125
0.585011
0.749707
0.842725
0.894216
0.923508
0.9411
0.952445
0.960335
0.966201
0.970777
0.974446
0.977427
0.979858
0.981841
0.983446
0.984736
0.985758
0.986557
0.987164
0.987608
0.987916
0.988102
0.98818
0.988162
0.988039
0.9878
0.987448
0.98698
0.986392
0.985682
0.98484
0.98386
0.982738
0.981468
0.980043
0.978465
0.97673
0.974842
0.972803
0.970617
0.968293
0.965835
0.963256
0.960559
0.957759
0.954862
0.951879
0.948819
0.945688
0.942497
0.93925
0.935957
0.932622
0.92925
0.925843
0.92241
0.918949
0.915468
0.911961
0.908438
0.904897
0.901336
0.897759
0.894169
0.890558
0.886934
0.88329
0.879628
0.875951
0.872253
0.868538
0.864801
0.861043
0.857266
0.853472
0.849654
0.845814
0.841956
0.838082
0.834196
0.83028
0.826354
0.822421
0.818485
0.814557
0.810642
0.80675
0.802891
0.799083
0.795343
0.791686
0.788144
0.784733
0.781494
0.778452
0.775651
0.773135
0.770956
0.769162
0.767817
0.766984
0.766737
0.767139
0.768278
0.770222
0.773052
0.776837
0.781648
0.787537
0.794547
0.802703
0.812002
0.82242
0.833908
0.846383
0.85973
0.873802
0.888405
0.90327
0.918024
0.932141
0.944917
0.955441
0.962515
0.96445
0.954171
0.917621
0.874935
0.825416
0.766425
0.695392
0.610143
0.509473
0.394531
0.270754
0.150427
0.052881
0.00607147
0.159955
0.508132
0.736815
0.852096
0.907482
0.935172
0.950281
0.959557
0.966044
0.97108
0.975237
0.97874
0.981688
0.984142
0.986156
0.98779
0.989098
0.990126
0.990923
0.991531
0.991982
0.992307
0.992527
0.992663
0.992727
0.992728
0.992663
0.992521
0.992304
0.992012
0.991645
0.9912
0.990673
0.99006
0.989356
0.988553
0.987648
0.986632
0.985506
0.984259
0.982896
0.98141
0.979806
0.978081
0.976242
0.974294
0.972239
0.970085
0.967839
0.965509
0.963101
0.960625
0.958087
0.955498
0.952865
0.950192
0.947485
0.944755
0.942003
0.939236
0.936458
0.933677
0.930893
0.928105
0.925324
0.922546
0.919774
0.917011
0.914257
0.911512
0.908774
0.90605
0.903335
0.900631
0.897936
0.895255
0.892581
0.889914
0.887263
0.88462
0.881988
0.879373
0.876762
0.874164
0.871584
0.869024
0.866486
0.863983
0.861521
0.859107
0.856751
0.854472
0.852278
0.850187
0.848218
0.846396
0.844745
0.843288
0.842063
0.841096
0.840425
0.840092
0.840137
0.840602
0.841535
0.842979
0.844978
0.847575
0.850814
0.854717
0.859317
0.864621
0.870634
0.877338
0.884693
0.892649
0.901124
0.910012
0.919171
0.928423
0.937541
0.946223
0.954089
0.960656
0.965319
0.967266
0.965337
0.956943
0.931741
0.899654
0.862409
0.817393
0.761175
0.689546
0.597804
0.482626
0.34533
0.198162
0.0693493
0.02506
0.314818
0.674929
0.842588
0.910698
0.939798
0.953972
0.962197
0.967953
0.972647
0.976796
0.980487
0.983688
0.986385
0.988589
0.990351
0.991728
0.992779
0.993565
0.994135
0.994537
0.99481
0.994989
0.995098
0.995155
0.995176
0.995169
0.995134
0.995047
0.99491
0.994724
0.994486
0.994196
0.993852
0.993448
0.992981
0.992449
0.991843
0.991162
0.990401
0.989555
0.988619
0.987591
0.98647
0.985254
0.983942
0.982537
0.981039
0.979456
0.977787
0.976039
0.974219
0.972332
0.970385
0.968384
0.966339
0.964256
0.96214
0.959996
0.957834
0.955663
0.953479
0.951296
0.949113
0.946935
0.944769
0.942612
0.940472
0.938352
0.936246
0.934161
0.932096
0.930055
0.928036
0.926036
0.924061
0.922105
0.920174
0.918266
0.916377
0.91451
0.91267
0.910853
0.909057
0.907276
0.90552
0.903792
0.902095
0.900431
0.898808
0.897234
0.895716
0.894262
0.892881
0.891588
0.890397
0.889323
0.888386
0.887599
0.886985
0.886571
0.886376
0.88643
0.886761
0.887393
0.888361
0.889684
0.8914
0.893528
0.896087
0.899099
0.902567
0.906494
0.91087
0.915675
0.920866
0.926395
0.932185
0.938145
0.94415
0.950051
0.955656
0.96073
0.96498
0.968046
0.969469
0.968644
0.964738
0.956573
0.939042
0.913368
0.883725
0.848169
0.803522
0.745021
0.66551
0.556896
0.413629
0.243855
0.0840944
0.070661
0.493022
0.80237
0.904649
0.939906
0.954706
0.962621
0.968018
0.97251
0.976705
0.980703
0.984329
0.987422
0.989935
0.991904
0.9934
0.994494
0.995259
0.99576
0.99606
0.996212
0.996264
0.996252
0.996212
0.99616
0.996114
0.996077
0.996055
0.996008
0.995937
0.99584
0.995712
0.995551
0.995353
0.995115
0.99483
0.994496
0.994108
0.993662
0.993156
0.992584
0.991943
0.991231
0.990446
0.989586
0.988648
0.987633
0.986541
0.985378
0.98414
0.982833
0.981465
0.980034
0.978547
0.977014
0.975437
0.973821
0.972177
0.970509
0.968821
0.967121
0.965412
0.963702
0.961993
0.960294
0.958605
0.956927
0.955267
0.953625
0.952005
0.950407
0.948833
0.94728
0.945756
0.944257
0.942781
0.941329
0.939903
0.938505
0.937134
0.935783
0.934462
0.93317
0.931892
0.93064
0.929412
0.92821
0.927037
0.925897
0.924794
0.92373
0.922714
0.921755
0.920853
0.920025
0.919273
0.918615
0.91806
0.917619
0.917312
0.917149
0.917155
0.917341
0.917727
0.918334
0.919178
0.920279
0.921652
0.92331
0.925269
0.92753
0.930097
0.932965
0.936121
0.939537
0.943177
0.946994
0.950925
0.954884
0.958769
0.962449
0.965765
0.968525
0.970495
0.97138
0.970819
0.968344
0.963334
0.954991
0.941788
0.920921
0.896055
0.866552
0.829893
0.78191
0.714578
0.616281
0.473523
0.286359
0.0975689
0.153595
0.658195
0.881964
0.935386
0.953266
0.961731
0.967097
0.971429
0.975542
0.979723
0.983831
0.987478
0.99045
0.992738
0.994425
0.99561
0.99638
0.996814
0.996984
0.996959
0.996804
0.996577
0.99633
0.996095
0.9959
0.995758
0.995677
0.995654
0.995642
0.995635
0.995628
0.995613
0.995584
0.995536
0.995459
0.995349
0.995199
0.995008
0.99477
0.994477
0.994132
0.993728
0.993263
0.992736
0.992144
0.991491
0.990772
0.989987
0.989138
0.988229
0.987259
0.986233
0.985154
0.984027
0.982854
0.981643
0.980398
0.979124
0.977827
0.976513
0.975188
0.973851
0.972516
0.97118
0.969848
0.968528
0.96722
0.965928
0.964651
0.963394
0.96216
0.96095
0.959758
0.958595
0.957452
0.956335
0.955243
0.954174
0.953133
0.952115
0.951118
0.950153
0.949208
0.948288
0.947384
0.946504
0.945646
0.944811
0.944007
0.943236
0.942494
0.941793
0.941138
0.940527
0.939971
0.939479
0.939056
0.938714
0.938457
0.938301
0.938252
0.938328
0.938532
0.938885
0.939398
0.940077
0.940942
0.941994
0.943249
0.944705
0.946372
0.948237
0.950295
0.952534
0.954925
0.957435
0.96002
0.96262
0.965162
0.96756
0.969694
0.971437
0.972621
0.973052
0.972484
0.970622
0.967091
0.961425
0.953057
0.941358
0.924813
0.903128
0.877526
0.846053
0.805561
0.748399
0.661378
0.523784
0.324773
0.11022
0.279728
0.781622
0.921547
0.949052
0.959663
0.965548
0.969852
0.97377
0.977847
0.982207
0.98651
0.990158
0.992939
0.994939
0.996299
0.997141
0.99755
0.9976
0.997375
0.996952
0.996416
0.995843
0.995291
0.99481
0.994429
0.994168
0.994027
0.993998
0.99402
0.994085
0.994181
0.994295
0.994416
0.994537
0.994643
0.994725
0.994776
0.994789
0.994756
0.994679
0.994547
0.994364
0.994122
0.993822
0.993463
0.993045
0.992567
0.992031
0.991438
0.990789
0.990087
0.989332
0.988532
0.987687
0.9868
0.985879
0.984924
0.983944
0.98294
0.98192
0.98089
0.979849
0.978804
0.97776
0.97672
0.975686
0.974665
0.973655
0.972659
0.971682
0.970724
0.969784
0.968865
0.967964
0.967087
0.966232
0.965399
0.964589
0.963799
0.963032
0.962284
0.961563
0.960862
0.960183
0.959516
0.95887
0.958244
0.957639
0.957057
0.956497
0.955969
0.955466
0.955002
0.954571
0.954186
0.953848
0.953563
0.953333
0.953174
0.953085
0.95308
0.95316
0.953339
0.953622
0.95402
0.954538
0.955186
0.955964
0.95688
0.957931
0.959123
0.96044
0.961878
0.963418
0.965036
0.966698
0.968369
0.969989
0.971495
0.972806
0.973824
0.974434
0.97449
0.973824
0.972234
0.96947
0.96523
0.959148
0.950804
0.939738
0.925498
0.906923
0.883969
0.855857
0.820376
0.770769
0.694012
0.56416
0.358551
0.122411
0.439522
0.854996
0.936873
0.95555
0.963288
0.967976
0.971753
0.975526
0.979712
0.984344
0.988868
0.992444
0.994955
0.996618
0.997633
0.998107
0.99811
0.997709
0.996997
0.996079
0.995061
0.994044
0.99311
0.992319
0.99171
0.991299
0.991087
0.99105
0.991115
0.991268
0.99149
0.991764
0.99207
0.992392
0.992713
0.993022
0.993302
0.993547
0.993749
0.993901
0.994001
0.994042
0.994023
0.993945
0.993807
0.993611
0.993354
0.993038
0.992666
0.992242
0.991762
0.991235
0.990663
0.990047
0.989395
0.988709
0.98799
0.987247
0.986481
0.985695
0.984899
0.984094
0.983282
0.982469
0.981658
0.980851
0.980052
0.979265
0.978487
0.977725
0.976973
0.976243
0.975527
0.974831
0.974151
0.973489
0.972848
0.972223
0.97162
0.971031
0.970464
0.969915
0.969383
0.968873
0.968371
0.967889
0.967421
0.966968
0.966533
0.96612
0.965727
0.965357
0.965012
0.9647
0.964417
0.96417
0.96396
0.963797
0.963683
0.963618
0.963616
0.963675
0.963804
0.964011
0.964295
0.964664
0.965119
0.965663
0.9663
0.967025
0.967834
0.968719
0.969669
0.970667
0.971688
0.972702
0.97367
0.974543
0.975263
0.975754
0.975932
0.97569
0.974905
0.973428
0.971088
0.967668
0.962928
0.956565
0.948254
0.937627
0.9243
0.907854
0.887464
0.861636
0.82945
0.785047
0.716552
0.595192
0.387509
0.134427
0.574198
0.895886
0.946611
0.959457
0.965629
0.969651
0.973135
0.976882
0.981252
0.986214
0.990952
0.994372
0.996543
0.997852
0.998516
0.998599
0.998131
0.997178
0.995855
0.994306
0.992676
0.9911
0.989686
0.988514
0.987625
0.987041
0.986755
0.986711
0.986837
0.987107
0.987494
0.987971
0.988509
0.989083
0.989669
0.990249
0.990804
0.991323
0.991796
0.992211
0.992567
0.992859
0.993083
0.993239
0.993328
0.993351
0.99331
0.993206
0.993042
0.992822
0.992547
0.992222
0.991852
0.991436
0.990981
0.990491
0.98997
0.989424
0.988852
0.988263
0.987659
0.987043
0.986421
0.985795
0.985167
0.984541
0.983921
0.983304
0.9827
0.982103
0.98152
0.98095
0.980391
0.979848
0.979317
0.978805
0.978305
0.977821
0.977352
0.976895
0.976455
0.976034
0.975623
0.97523
0.974849
0.974477
0.974117
0.97377
0.97344
0.973121
0.972822
0.972537
0.972271
0.972029
0.971806
0.971613
0.971448
0.971314
0.971212
0.971152
0.971133
0.971157
0.971227
0.971353
0.971528
0.971763
0.972051
0.972398
0.9728
0.973254
0.973755
0.974291
0.974849
0.975414
0.975962
0.976461
0.976878
0.977163
0.977264
0.977117
0.97664
0.975741
0.974306
0.972209
0.969296
0.965387
0.960273
0.95371
0.945423
0.935104
0.922407
0.906918
0.888033
0.86472
0.834751
0.793805
0.731366
0.617937
0.411785
0.146496
0.691921
0.918827
0.952922
0.962553
0.967359
0.970832
0.974143
0.977927
0.982527
0.987847
0.992793
0.995962
0.997748
0.998715
0.999038
0.998687
0.997645
0.995993
0.993888
0.991533
0.989131
0.986861
0.984862
0.983232
0.98202
0.981244
0.98089
0.980854
0.981069
0.981501
0.982107
0.982846
0.98368
0.984569
0.985484
0.986398
0.987288
0.988135
0.988925
0.989647
0.990295
0.990868
0.991362
0.991773
0.992107
0.992363
0.992545
0.992655
0.992697
0.992677
0.992596
0.99246
0.992273
0.992039
0.991763
0.991448
0.9911
0.990722
0.99032
0.989895
0.989454
0.988998
0.988532
0.988059
0.987584
0.987105
0.986628
0.986153
0.985684
0.985223
0.984769
0.984324
0.983888
0.983463
0.98305
0.982648
0.982259
0.981878
0.98151
0.981154
0.980811
0.98048
0.980157
0.979849
0.979548
0.979259
0.978974
0.978701
0.978439
0.978185
0.977943
0.977714
0.977499
0.977297
0.977114
0.976948
0.976801
0.976677
0.976576
0.976499
0.976449
0.976431
0.976444
0.976488
0.976566
0.976677
0.976819
0.976995
0.977199
0.977425
0.977666
0.977912
0.97815
0.978361
0.978519
0.978601
0.97857
0.978386
0.977992
0.97733
0.97633
0.974904
0.972953
0.970365
0.967006
0.962714
0.957315
0.950598
0.942322
0.932219
0.919968
0.90516
0.887186
0.865036
0.836871
0.798794
0.740469
0.633699
0.431738
0.158811
0.780847
0.932849
0.957235
0.964767
0.968768
0.971738
0.974861
0.978709
0.983554
0.989255
0.9944
0.997233
0.99862
0.999283
0.999269
0.998406
0.996639
0.994085
0.990984
0.987616
0.984259
0.981145
0.97845
0.976288
0.974715
0.973745
0.973344
0.973343
0.973695
0.974349
0.975246
0.976326
0.977534
0.978822
0.980144
0.981465
0.982756
0.983991
0.985155
0.986234
0.987223
0.988114
0.988907
0.989602
0.990201
0.990707
0.991127
0.991461
0.991714
0.991895
0.992008
0.992059
0.992048
0.991986
0.991876
0.991723
0.991532
0.991306
0.991054
0.990773
0.990473
0.990155
0.989824
0.989482
0.989131
0.988778
0.988419
0.988061
0.987705
0.987351
0.987002
0.986659
0.986322
0.985989
0.985667
0.985351
0.985043
0.984744
0.984454
0.984173
0.983899
0.983632
0.983377
0.983128
0.982887
0.98265
0.982421
0.982197
0.981981
0.981769
0.981566
0.981373
0.981186
0.981006
0.980842
0.980687
0.980542
0.980414
0.980298
0.980196
0.980113
0.980047
0.979996
0.979966
0.979951
0.979952
0.979964
0.97999
0.98002
0.98005
0.980072
0.980073
0.980037
0.979953
0.97979
0.979524
0.979121
0.978543
0.97774
0.976657
0.975225
0.973373
0.971004
0.968019
0.964302
0.959705
0.954077
0.947231
0.938957
0.929006
0.917074
0.902757
0.885451
0.864167
0.837117
0.800594
0.744883
0.643109
0.447577
0.171538
0.826275
0.946081
0.96029
0.966353
0.969763
0.972499
0.975377
0.979253
0.984348
0.990445
0.995789
0.998212
0.999214
0.999634
0.999265
0.997765
0.99506
0.991351
0.986996
0.982382
0.977874
0.973761
0.970263
0.967509
0.965557
0.964406
0.964004
0.964083
0.964638
0.965594
0.96687
0.968385
0.970064
0.97184
0.973657
0.975467
0.977231
0.978921
0.980521
0.982009
0.983381
0.984633
0.985761
0.986769
0.987659
0.988437
0.989108
0.989679
0.990155
0.990544
0.990852
0.991087
0.991254
0.99136
0.99141
0.991408
0.991366
0.991282
0.991165
0.991017
0.990842
0.990647
0.990434
0.990206
0.989965
0.989717
0.989461
0.989201
0.988938
0.988675
0.988412
0.98815
0.987889
0.987635
0.987384
0.987134
0.986894
0.986655
0.986424
0.986195
0.985975
0.985758
0.985548
0.985343
0.985145
0.984947
0.984752
0.984562
0.984374
0.98419
0.984008
0.983832
0.98366
0.983493
0.983331
0.983174
0.983023
0.982878
0.982743
0.982612
0.982488
0.982372
0.98226
0.982154
0.982051
0.98195
0.981846
0.981735
0.981613
0.981472
0.981301
0.981087
0.980821
0.980479
0.980041
0.97948
0.978766
0.977856
0.976708
0.97527
0.97348
0.971269
0.968554
0.965246
0.961231
0.956385
0.950571
0.943618
0.935335
0.925489
0.913788
0.899831
0.883021
0.862383
0.836176
0.800827
0.747043
0.648927
0.458301
0.181003
0.855623
0.950795
0.962498
0.967461
0.970419
0.972971
0.975839
0.979572
0.98491
0.99141
0.996967
0.998926
0.999593
0.999831
0.999059
0.996735
0.99282
0.987657
0.981757
0.975647
0.969782
0.964526
0.960129
0.956737
0.954406
0.953115
0.95278
0.953011
0.953861
0.955225
0.956994
0.959056
0.961312
0.963679
0.966083
0.968466
0.970782
0.972997
0.975087
0.977035
0.978835
0.980484
0.98198
0.983327
0.984532
0.985599
0.98654
0.987357
0.988065
0.988669
0.989179
0.989602
0.989946
0.990218
0.990425
0.990574
0.990671
0.990722
0.990733
0.990708
0.99065
0.990566
0.990459
0.990332
0.990189
0.990032
0.989864
0.989687
0.989505
0.989315
0.989123
0.988932
0.988737
0.988542
0.988347
0.988154
0.987961
0.987772
0.987583
0.987397
0.987214
0.987036
0.986859
0.986685
0.986512
0.98634
0.986168
0.985999
0.985826
0.985658
0.985487
0.985317
0.985148
0.984982
0.984814
0.984649
0.984482
0.984316
0.984152
0.983985
0.983819
0.983651
0.983477
0.983299
0.983113
0.982916
0.982704
0.98247
0.982209
0.981913
0.981571
0.981172
0.9807
0.980135
0.979455
0.978639
0.977652
0.976459
0.975017
0.973277
0.971184
0.968671
0.965668
0.962085
0.957822
0.952772
0.946802
0.939755
0.931457
0.921682
0.910149
0.89646
0.880025
0.859879
0.834317
0.799859
0.747513
0.652087
0.46525
0.187681
0.876417
0.954368
0.964267
0.968178
0.970754
0.973169
0.97607
0.979838
0.985239
0.992142
0.997942
0.999417
0.999813
0.999932
0.998663
0.995265
0.989809
0.982851
0.975103
0.96724
0.959823
0.953282
0.947906
0.943855
0.941176
0.939817
0.939477
0.939971
0.941259
0.943188
0.945604
0.948364
0.951339
0.95442
0.957518
0.960566
0.963509
0.966311
0.968948
0.971402
0.973668
0.975745
0.977634
0.979343
0.980878
0.982251
0.983471
0.984549
0.985495
0.986319
0.987034
0.987646
0.988167
0.988604
0.988966
0.989261
0.989495
0.989675
0.989808
0.989897
0.989948
0.989967
0.989959
0.989922
0.989866
0.989793
0.989702
0.989599
0.989486
0.989363
0.989233
0.989095
0.988954
0.988808
0.98866
0.98851
0.988359
0.988204
0.98805
0.987897
0.98774
0.987585
0.987431
0.987278
0.987123
0.986965
0.986808
0.986646
0.986484
0.986318
0.98615
0.98598
0.985805
0.98563
0.985451
0.985268
0.985078
0.984886
0.984689
0.984484
0.984273
0.984048
0.983815
0.983567
0.983298
0.98301
0.982695
0.982348
0.981961
0.981525
0.981028
0.980461
0.979805
0.979041
0.978155
0.977113
0.975889
0.974447
0.97275
0.970749
0.968397
0.965627
0.962377
0.958564
0.954096
0.948871
0.942768
0.935642
0.927322
0.917599
0.906186
0.8927
0.876553
0.856787
0.831723
0.797954
0.746688
0.653245
0.469317
0.192104
0.891705
0.956926
0.965277
0.968559
0.970801
0.97308
0.976036
0.98003
0.985377
0.992637
0.998726
0.999725
0.999927
0.999977
0.998065
0.993284
0.985908
0.976791
0.96688
0.957013
0.947858
0.939907
0.933492
0.928787
0.925823
0.924508
0.92424
0.925143
0.927026
0.929683
0.932909
0.936516
0.940342
0.944253
0.948145
0.951938
0.955576
0.959017
0.96224
0.965235
0.967993
0.970517
0.972816
0.974897
0.976773
0.978457
0.979962
0.981302
0.982489
0.983535
0.984453
0.985256
0.985952
0.986554
0.987068
0.987507
0.987871
0.988176
0.988423
0.988621
0.988777
0.988891
0.988971
0.989023
0.989046
0.989046
0.989026
0.988987
0.988934
0.988866
0.988789
0.988699
0.988603
0.988496
0.988387
0.98827
0.988148
0.988023
0.987895
0.987763
0.987626
0.987489
0.987349
0.987205
0.987059
0.98691
0.986756
0.986598
0.986436
0.986267
0.986093
0.985913
0.985729
0.985538
0.98534
0.985134
0.984919
0.984696
0.984461
0.984215
0.983953
0.983676
0.98338
0.983061
0.982717
0.982339
0.981929
0.981474
0.98097
0.980404
0.979767
0.979047
0.978225
0.977287
0.976209
0.974968
0.973535
0.971876
0.969958
0.967734
0.965156
0.962168
0.958705
0.954696
0.95005
0.944678
0.938464
0.931265
0.922924
0.913232
0.901915
0.888586
0.872662
0.853195
0.82853
0.795298
0.744857
0.65287
0.471156
0.194721
0.903171
0.958726
0.965806
0.968626
0.970549
0.972698
0.975708
0.979942
0.985503
0.992882
0.999324
0.999896
0.999978
0.999994
0.997244
0.990707
0.980999
0.969348
0.956969
0.944866
0.933801
0.924327
0.916826
0.911493
0.908346
0.907232
0.907296
0.9088
0.911481
0.915056
0.919262
0.923864
0.92866
0.933496
0.938252
0.942847
0.947215
0.951327
0.955155
0.958698
0.961954
0.964929
0.967637
0.97009
0.972304
0.974298
0.976084
0.977681
0.979104
0.980369
0.981487
0.982474
0.983341
0.9841
0.984762
0.985334
0.98583
0.98625
0.986611
0.98691
0.987162
0.987365
0.987529
0.987657
0.987754
0.98782
0.987862
0.98788
0.98788
0.987862
0.987828
0.987779
0.98772
0.987647
0.987567
0.987477
0.98738
0.987274
0.987162
0.987044
0.986923
0.986792
0.986658
0.986522
0.986377
0.98623
0.986073
0.985911
0.985741
0.985564
0.985377
0.985184
0.98498
0.98477
0.984548
0.984315
0.984071
0.983811
0.983537
0.983244
0.982933
0.982602
0.982241
0.981855
0.981435
0.980975
0.98047
0.979916
0.9793
0.978613
0.977848
0.976987
0.976016
0.974916
0.973669
0.97225
0.970633
0.968787
0.966672
0.964251
0.961478
0.958299
0.954658
0.950477
0.945685
0.940189
0.933875
0.926617
0.918256
0.90859
0.897345
0.884141
0.868397
0.849171
0.824826
0.792032
0.742221
0.651294
0.471262
0.195903
0.911857
0.959954
0.965976
0.968356
0.970001
0.972
0.975065
0.979563
0.98556
0.992929
0.999738
0.999973
0.999995
0.999999
0.996171
0.987454
0.974973
0.960421
0.945298
0.930752
0.91762
0.906512
0.897877
0.891969
0.888794
0.88792
0.888577
0.891
0.894802
0.899592
0.905021
0.910797
0.916693
0.922537
0.928207
0.933623
0.93873
0.943501
0.947923
0.951997
0.95573
0.959136
0.962232
0.965038
0.967571
0.969858
0.97191
0.97375
0.975395
0.976864
0.978173
0.979337
0.980364
0.981275
0.982075
0.982777
0.98339
0.983925
0.984385
0.984783
0.98512
0.985407
0.985647
0.985846
0.986005
0.986133
0.986228
0.986297
0.986343
0.986366
0.986369
0.986354
0.986326
0.98628
0.986222
0.986153
0.986071
0.985979
0.985878
0.985769
0.985653
0.985527
0.985393
0.985252
0.985105
0.984953
0.984787
0.984614
0.984432
0.984241
0.984039
0.983825
0.983601
0.983364
0.983114
0.98285
0.98257
0.982272
0.981955
0.981616
0.981253
0.980864
0.980444
0.979989
0.979492
0.978951
0.978359
0.977707
0.976989
0.976189
0.975303
0.974312
0.973205
0.971961
0.970563
0.968983
0.967201
0.965185
0.9629
0.960309
0.957367
0.954026
0.950227
0.945907
0.94099
0.935383
0.928992
0.921683
0.913307
0.903657
0.892476
0.879379
0.863784
0.84476
0.820684
0.788249
0.738934
0.648775
0.470016
0.195952
0.918446
0.960703
0.965799
0.967705
0.969145
0.970972
0.974075
0.978856
0.985323
0.992971
0.999964
0.999998
1
1
0.994809
0.983444
0.967744
0.949954
0.931852
0.914694
0.899349
0.886479
0.876645
0.870232
0.867258
0.866249
0.867956
0.871826
0.877256
0.883685
0.890656
0.897821
0.904939
0.911847
0.918439
0.924657
0.930459
0.935844
0.940804
0.945357
0.949518
0.95331
0.956752
0.95987
0.962687
0.965232
0.967523
0.969582
0.971429
0.973083
0.974563
0.975883
0.977059
0.978104
0.979031
0.97985
0.980572
0.981206
0.981761
0.982245
0.982663
0.983024
0.983331
0.983593
0.983809
0.983987
0.984131
0.984244
0.984328
0.984384
0.984419
0.98443
0.984425
0.9844
0.984356
0.984301
0.984231
0.984147
0.984049
0.983944
0.983826
0.983697
0.983559
0.983413
0.983256
0.983091
0.982914
0.982724
0.982524
0.982313
0.982087
0.98185
0.9816
0.981333
0.981052
0.980752
0.980434
0.980094
0.979733
0.979346
0.97893
0.978483
0.978
0.977475
0.976905
0.976286
0.975609
0.974867
0.974048
0.973147
0.972147
0.971039
0.969806
0.96843
0.966894
0.965174
0.963248
0.961082
0.958645
0.955907
0.952819
0.949338
0.945407
0.940968
0.935944
0.930252
0.923796
0.916443
0.908054
0.898429
0.887303
0.874294
0.858835
0.839993
0.816154
0.784028
0.735112
0.645496
0.467703
0.195106
0.923376
0.961072
0.965354
0.966806
0.967967
0.96958
0.972705
0.977784
0.984788
0.993009
1
0.999999
0.999998
0.999999
0.993126
0.978609
0.959253
0.93794
0.916694
0.896812
0.879123
0.864305
0.853115
0.846278
0.843834
0.843714
0.846963
0.852742
0.860178
0.868515
0.877184
0.885802
0.894134
0.902046
0.909477
0.916389
0.922788
0.928678
0.93408
0.939019
0.943524
0.947623
0.951344
0.954716
0.957766
0.960525
0.963011
0.965249
0.967264
0.969077
0.970699
0.972154
0.973455
0.974617
0.97565
0.976571
0.977387
0.978109
0.978747
0.979305
0.979793
0.980215
0.980582
0.980897
0.98116
0.981385
0.981566
0.981714
0.981828
0.981912
0.981969
0.981999
0.98201
0.981997
0.981966
0.981916
0.981848
0.981768
0.981669
0.98156
0.981434
0.9813
0.981151
0.980991
0.98082
0.980638
0.98044
0.980231
0.980009
0.979773
0.979523
0.979255
0.978974
0.978675
0.978356
0.978019
0.977659
0.977277
0.976868
0.976428
0.97596
0.975452
0.974906
0.974318
0.973676
0.97298
0.972222
0.971389
0.970481
0.96948
0.968376
0.96716
0.965811
0.964318
0.962658
0.960812
0.958755
0.956459
0.953895
0.951027
0.947815
0.944215
0.940173
0.935633
0.930524
0.92476
0.918252
0.910874
0.90248
0.892879
0.881805
0.868889
0.853555
0.834882
0.811267
0.779425
0.730833
0.641603
0.46454
0.193557
0.926964
0.961129
0.964671
0.965637
0.966449
0.967801
0.970915
0.976306
0.983919
0.992874
1
1
0.999998
0.999997
0.9911
0.972886
0.94947
0.924439
0.899993
0.877367
0.857217
0.840157
0.827234
0.820026
0.817111
0.819045
0.8254
0.834445
0.844754
0.855394
0.865827
0.875789
0.88514
0.893837
0.901882
0.909289
0.916089
0.92232
0.928014
0.933209
0.937944
0.942247
0.946156
0.9497
0.952915
0.955822
0.958448
0.960823
0.962963
0.964891
0.966626
0.968185
0.969584
0.970838
0.97196
0.972958
0.97385
0.974641
0.975344
0.975962
0.976504
0.976979
0.977391
0.977747
0.978051
0.978308
0.978519
0.978691
0.978829
0.978931
0.979005
0.979048
0.979065
0.979058
0.97903
0.97898
0.97891
0.978824
0.97872
0.9786
0.978464
0.978312
0.978148
0.977969
0.977778
0.977575
0.977354
0.97712
0.97687
0.976603
0.976323
0.976024
0.975707
0.97537
0.975013
0.974632
0.97423
0.973799
0.973339
0.97285
0.972323
0.971759
0.971149
0.970493
0.969782
0.969013
0.968174
0.967259
0.966263
0.96517
0.963972
0.962654
0.961202
0.959602
0.957834
0.955876
0.953705
0.951297
0.948623
0.945645
0.942326
0.93863
0.934498
0.929876
0.924696
0.91888
0.912333
0.904937
0.896549
0.886979
0.875969
0.863145
0.847936
0.829433
0.806039
0.77447
0.726164
0.637201
0.460687
0.191452
0.92941
0.960916
0.963757
0.964111
0.964414
0.965608
0.968668
0.974374
0.982671
0.992533
0.999997
0.999997
0.999998
0.999996
0.988706
0.966218
0.938396
0.909597
0.882071
0.856854
0.834211
0.814475
0.798896
0.791009
0.788418
0.794963
0.806812
0.820394
0.833828
0.846455
0.858141
0.868904
0.878787
0.887848
0.896148
0.903743
0.910687
0.917035
0.92283
0.928113
0.93293
0.93732
0.941308
0.944931
0.94822
0.951208
0.953913
0.956359
0.958572
0.960572
0.962376
0.964002
0.965466
0.966781
0.967961
0.969018
0.969961
0.970801
0.971548
0.97221
0.972792
0.9733
0.973747
0.97413
0.974457
0.974737
0.974967
0.975154
0.975304
0.975414
0.975493
0.97554
0.975558
0.975549
0.975517
0.975461
0.97538
0.975281
0.975164
0.975027
0.974874
0.974701
0.974515
0.974313
0.974096
0.973864
0.973614
0.973349
0.973068
0.972767
0.972449
0.972113
0.971756
0.971379
0.97098
0.970556
0.970104
0.969625
0.969114
0.968568
0.967986
0.967361
0.96669
0.965969
0.965188
0.964346
0.963432
0.962439
0.96136
0.960183
0.958898
0.957488
0.955944
0.954249
0.952383
0.950327
0.948059
0.945555
0.942783
0.939717
0.936314
0.932534
0.928328
0.923643
0.918411
0.912556
0.905982
0.898585
0.890217
0.880692
0.869754
0.857035
0.841967
0.823641
0.800481
0.769188
0.72115
0.632362
0.456267
0.188899
0.930824
0.960482
0.962661
0.962294
0.961914
0.962988
0.965923
0.97193
0.980983
0.991974
1
1
0.999998
1
0.98592
0.958544
0.926074
0.893684
0.863496
0.836199
0.811364
0.78862
0.768377
0.752745
0.759182
0.780992
0.800739
0.816035
0.830099
0.84309
0.855118
0.865795
0.875532
0.884416
0.892538
0.899969
0.906766
0.912981
0.918666
0.923859
0.928606
0.932934
0.936887
0.94048
0.943754
0.946731
0.94944
0.951897
0.954126
0.956147
0.95797
0.959621
0.96111
0.962452
0.96366
0.964742
0.965711
0.966578
0.967347
0.96803
0.968632
0.969159
0.969618
0.970014
0.970354
0.970638
0.970875
0.971066
0.971215
0.971325
0.9714
0.97144
0.971448
0.971429
0.971383
0.971308
0.971212
0.971094
0.970954
0.970794
0.970616
0.970416
0.970201
0.969968
0.969719
0.969453