# Selection   : all
# Cells       : 5712
# Volume      : 1.562305e-05
# Time        	max(T)
0             	2.980000e+02
0.0132        	2.987900e+02
0.032208      	2.995574e+02
0.0595795     	3.005155e+02
0.0989945     	3.017896e+02
0.155752      	3.033978e+02
0.237483      	3.058651e+02
0.355176      	3.093899e+02
0.524653      	3.142674e+02
0.7687        	3.209974e+02
1.120128      	3.302368e+02
1.626184      	3.428070e+02
2.354905      	3.597018e+02
3.331886      	3.805480e+02
4.331886      	4.001490e+02
5.331886      	4.182733e+02
6.331886      	4.351362e+02
7.331886      	4.509302e+02
8.331886      	4.658100e+02
9.331886      	4.798991e+02
10.331886     	4.932980e+02
11.331886     	5.060926e+02
12.331886     	5.183544e+02
13.331886     	5.301431e+02
14.331886     	5.415084e+02
15.331886     	5.524920e+02
16.331886     	5.631292e+02
17.331886     	5.734493e+02
18.331886     	5.834781e+02
19.331886     	5.932382e+02
20.331886     	6.027492e+02
21.331886     	6.120263e+02
22.331886     	6.210840e+02
23.331886     	6.299351e+02
24.331886     	6.385911e+02
25.331886     	6.470620e+02
26.331886     	6.553569e+02
27.331886     	6.634840e+02
28.331886     	6.714505e+02
29.331886     	6.792619e+02
30.331886     	6.869211e+02
31.331886     	6.944269e+02
32.331886     	7.017836e+02
33.331886     	7.089965e+02
34.331886     	7.160707e+02
35.331886     	7.230110e+02
36.331886     	7.298218e+02
37.331886     	7.365073e+02
38.331886     	7.430715e+02
39.331886     	7.495180e+02
40.331886     	7.558504e+02
41.331886     	7.620719e+02
42.331886     	7.681856e+02
43.331886     	7.741945e+02
44.331886     	7.801012e+02
45.331886     	7.859086e+02
46.331886     	7.916190e+02
47.331886     	7.972348e+02
48.331886     	8.027582e+02
49.331886     	8.081914e+02
50.331886     	8.135364e+02
51.331886     	8.187952e+02
52.331886     	8.239695e+02
53.331886     	8.290612e+02
54.331886     	8.340721e+02
55.331886     	8.390039e+02
56.331886     	8.438581e+02
57.331886     	8.486365e+02
58.331886     	8.533405e+02
59.331886     	8.579718e+02
60.331886     	8.625316e+02
61.331886     	8.670216e+02
62.331886     	8.714431e+02
63.331886     	8.757963e+02
64.331886     	8.800809e+02
65.331886     	8.842971e+02
66.331886     	8.884472e+02
67.331886     	8.925322e+02
68.331886     	8.965538e+02
69.331886     	9.005132e+02
70.331886     	9.044116e+02
71.331886     	9.082504e+02
72.331886     	9.120309e+02
73.331886     	9.157541e+02
74.331886     	9.194213e+02
75.331886     	9.230333e+02
76.331886     	9.265911e+02
77.331886     	9.300959e+02
78.331886     	9.335487e+02
79.331886     	9.369505e+02
80.331886     	9.403024e+02
81.331886     	9.436052e+02
82.331886     	9.468598e+02
83.331886     	9.500671e+02
84.331886     	9.532280e+02
85.331886     	9.563435e+02
86.331886     	9.594143e+02
87.331886     	9.624414e+02
88.331886     	9.654257e+02
89.331886     	9.683679e+02
90.331886     	9.712689e+02
91.331886     	9.741296e+02
92.331886     	9.769506e+02
93.331886     	9.797329e+02
94.331886     	9.824771e+02
95.331886     	9.851839e+02
96.331886     	9.878541e+02
97.331886     	9.904884e+02
98.331886     	9.930874e+02
99.331886     	9.956567e+02
100.331886    	9.982045e+02
101.331886    	1.000739e+03
102.331886    	1.003257e+03
103.331886    	1.005757e+03
104.331886    	1.008240e+03
105.331886    	1.010697e+03
106.331886    	1.013125e+03
107.331886    	1.015522e+03
108.331886    	1.017894e+03
109.331886    	1.020237e+03
110.331886    	1.022552e+03
111.331886    	1.024841e+03
112.331886    	1.027101e+03
113.331886    	1.029333e+03
114.331886    	1.031536e+03
115.331886    	1.033712e+03
116.331886    	1.035861e+03
117.331886    	1.037985e+03
118.331886    	1.040083e+03
119.331886    	1.042155e+03
120.331886    	1.044203e+03
121.331886    	1.046225e+03
122.331886    	1.048220e+03
123.331886    	1.050187e+03
124.331886    	1.052128e+03
125.331886    	1.054043e+03
126.331886    	1.055932e+03
127.331886    	1.057795e+03
128.331886    	1.059633e+03
129.331886    	1.061446e+03
130.331886    	1.063234e+03
131.331886    	1.064997e+03
132.331886    	1.066736e+03
133.331886    	1.068450e+03
134.331886    	1.070141e+03
135.331886    	1.071807e+03
136.331886    	1.073451e+03
137.331886    	1.075071e+03
138.331886    	1.076668e+03
139.331886    	1.078242e+03
140.331886    	1.079794e+03
141.331886    	1.081324e+03
142.331886    	1.082832e+03
143.331886    	1.084319e+03
144.331886    	1.085784e+03
145.331886    	1.087228e+03
146.331886    	1.088652e+03
147.331886    	1.090057e+03
148.331886    	1.091441e+03
149.331886    	1.092807e+03
150.331886    	1.094153e+03
151.331886    	1.095482e+03
152.331886    	1.096792e+03
153.331886    	1.098085e+03
154.331886    	1.099361e+03
155.331886    	1.100620e+03
156.331886    	1.101862e+03
157.331886    	1.103088e+03
158.331886    	1.104299e+03
159.331886    	1.105494e+03
160.331886    	1.106674e+03
161.331886    	1.107840e+03
162.331886    	1.108991e+03
163.331886    	1.110128e+03
164.331886    	1.111251e+03
165.331886    	1.112360e+03
166.331886    	1.113456e+03
167.331886    	1.114540e+03
168.331886    	1.115610e+03
169.331886    	1.116668e+03
170.331886    	1.117714e+03
171.331886    	1.118748e+03
172.331886    	1.119770e+03
173.331886    	1.120780e+03
174.331886    	1.121779e+03
175.331886    	1.122767e+03
176.331886    	1.123743e+03
177.331886    	1.124709e+03
178.331886    	1.125664e+03
179.331886    	1.126608e+03
180.331886    	1.127542e+03
181.331886    	1.128466e+03
182.331886    	1.129380e+03
183.331886    	1.130284e+03
184.331886    	1.131178e+03
185.331886    	1.132063e+03
186.331886    	1.132938e+03
187.331886    	1.133804e+03
188.331886    	1.134660e+03
189.331886    	1.135508e+03
190.331886    	1.136346e+03
191.331886    	1.137176e+03
192.331886    	1.137996e+03
193.331886    	1.138809e+03
194.331886    	1.139612e+03
195.331886    	1.140408e+03
196.331886    	1.141195e+03
197.331886    	1.141973e+03
198.331886    	1.142744e+03
199.331886    	1.143507e+03
200.331886    	1.144262e+03
201.331886    	1.145009e+03
202.331886    	1.145748e+03
203.331886    	1.146480e+03
204.331886    	1.147204e+03
205.331886    	1.147921e+03
206.331886    	1.148631e+03
207.331886    	1.149333e+03
208.331886    	1.150029e+03
209.331886    	1.150717e+03
210.331886    	1.151398e+03
211.331886    	1.152072e+03
212.331886    	1.152740e+03
213.331886    	1.153401e+03
214.331886    	1.154055e+03
215.331886    	1.154702e+03
216.331886    	1.155344e+03
217.331886    	1.155978e+03
218.331886    	1.156607e+03
219.331886    	1.157229e+03
220.331886    	1.157845e+03
221.331886    	1.158454e+03
222.331886    	1.159058e+03
223.331886    	1.159656e+03
224.331886    	1.160247e+03
225.331886    	1.160833e+03
226.331886    	1.161413e+03
227.331886    	1.161988e+03
228.331886    	1.162557e+03
229.331886    	1.163120e+03
230.331886    	1.163677e+03
231.331886    	1.164229e+03
232.331886    	1.164776e+03
233.331886    	1.165317e+03
234.331886    	1.165853e+03
235.331886    	1.166384e+03
236.331886    	1.166910e+03
237.331886    	1.167430e+03
238.331886    	1.167946e+03
239.331886    	1.168456e+03
240.331886    	1.168961e+03
241.331886    	1.169462e+03
242.331886    	1.169958e+03
243.331886    	1.170448e+03
244.331886    	1.170935e+03
245.331886    	1.171416e+03
246.331886    	1.171893e+03
247.331886    	1.172365e+03
248.331886    	1.172832e+03
249.331886    	1.173295e+03
250.331886    	1.173754e+03
251.331886    	1.174208e+03
252.331886    	1.174658e+03
253.331886    	1.175103e+03
254.331886    	1.175545e+03
255.331886    	1.175982e+03
256.331886    	1.176414e+03
257.331886    	1.176843e+03
258.331886    	1.177267e+03
259.331886    	1.177688e+03
260.331886    	1.178104e+03
261.331886    	1.178517e+03
262.331886    	1.178925e+03
263.331886    	1.179330e+03
264.331886    	1.179731e+03
265.331886    	1.180128e+03
266.331886    	1.180521e+03
267.331886    	1.180910e+03
268.331886    	1.181296e+03
269.331886    	1.181678e+03
270.331886    	1.182057e+03
271.331886    	1.182432e+03
272.331886    	1.182803e+03
273.331886    	1.183171e+03
274.331886    	1.183535e+03
275.331886    	1.183896e+03
276.331886    	1.184254e+03
277.331886    	1.184608e+03
278.331886    	1.184958e+03
279.331886    	1.185306e+03
280.331886    	1.185650e+03
281.331886    	1.185991e+03
282.331886    	1.186329e+03
283.331886    	1.186663e+03
284.331886    	1.186995e+03
285.331886    	1.187323e+03
286.331886    	1.187648e+03
287.331886    	1.187970e+03
288.331886    	1.188289e+03
289.331886    	1.188606e+03
290.331886    	1.188919e+03
291.331886    	1.189229e+03
292.331886    	1.189536e+03
293.331886    	1.189841e+03
294.331886    	1.190142e+03
295.331886    	1.190441e+03
296.331886    	1.190737e+03
297.331886    	1.191030e+03
298.331886    	1.191321e+03
299.331886    	1.191609e+03
300.331886    	1.191894e+03
301.331886    	1.192176e+03
302.331886    	1.192456e+03
303.331886    	1.192733e+03
304.331886    	1.193008e+03
305.331886    	1.193280e+03
306.331886    	1.193550e+03
307.331886    	1.193817e+03
308.331886    	1.194081e+03
309.331886    	1.194343e+03
310.331886    	1.194603e+03
311.331886    	1.194860e+03
312.331886    	1.195115e+03
313.331886    	1.195368e+03
314.331886    	1.195618e+03
315.331886    	1.195866e+03
316.331886    	1.196111e+03
317.331886    	1.196355e+03
318.331886    	1.196596e+03
319.331886    	1.196835e+03
320.331886    	1.197071e+03
321.331886    	1.197306e+03
322.331886    	1.197538e+03
323.331886    	1.197768e+03
324.331886    	1.197996e+03
325.331886    	1.198222e+03
326.331886    	1.198446e+03
327.331886    	1.198667e+03
328.331886    	1.198887e+03
329.331886    	1.199105e+03
330.331886    	1.199321e+03
331.331886    	1.199534e+03
332.331886    	1.199746e+03
333.331886    	1.199956e+03
334.331886    	1.200164e+03
335.331886    	1.200370e+03
336.331886    	1.200574e+03
337.331886    	1.200776e+03
338.331886    	1.200976e+03
339.331886    	1.201175e+03
340.331886    	1.201371e+03
341.331886    	1.201566e+03
342.331886    	1.201759e+03
343.331886    	1.201950e+03
344.331886    	1.202140e+03
345.331886    	1.202328e+03
346.331886    	1.202514e+03
347.331886    	1.202698e+03
348.331886    	1.202881e+03
349.331886    	1.203062e+03
350.331886    	1.203241e+03
351.331886    	1.203419e+03
352.331886    	1.203595e+03
353.331886    	1.203770e+03
354.331886    	1.203943e+03
355.331886    	1.204114e+03
356.331886    	1.204284e+03
357.331886    	1.204452e+03
358.331886    	1.204619e+03
359.331886    	1.204784e+03
360.331886    	1.202642e+03
361.331886    	1.199804e+03
362.331886    	1.197966e+03
363.331886    	1.197284e+03
364.331886    	1.196726e+03
365.331886    	1.196137e+03
366.331886    	1.195534e+03
367.331886    	1.194917e+03
368.331886    	1.194280e+03
369.331886    	1.193632e+03
370.331886    	1.192969e+03
371.331886    	1.192291e+03
372.331886    	1.191598e+03
373.331886    	1.190892e+03
374.331886    	1.190176e+03
375.331886    	1.189454e+03
376.331886    	1.188724e+03
377.331886    	1.187984e+03
378.331886    	1.187237e+03
379.331886    	1.186482e+03
380.331886    	1.185721e+03
381.331886    	1.184953e+03
382.331886    	1.184181e+03
383.331886    	1.183405e+03
384.331886    	1.182626e+03
385.331886    	1.181843e+03
386.331886    	1.181057e+03
387.331886    	1.180268e+03
388.331886    	1.179475e+03
389.331886    	1.178072e+03
390.331886    	1.172586e+03
391.331886    	1.162776e+03
392.331886    	1.150401e+03
393.331886    	1.136404e+03
394.331886    	1.121335e+03
395.331886    	1.105741e+03
396.331886    	1.089742e+03
397.331886    	1.073308e+03
398.331886    	1.056498e+03
399.331886    	1.039224e+03
400.331886    	1.021160e+03
401.331886    	1.002204e+03
402.331886    	9.833462e+02
403.331886    	9.650294e+02
404.331886    	9.469633e+02
405.331886    	9.290918e+02
406.331886    	9.114145e+02
407.331886    	8.939402e+02
408.331886    	8.766671e+02
409.331886    	8.595612e+02
410.331886    	8.426888e+02
411.331886    	8.260966e+02
412.331886    	8.098128e+02
413.331886    	7.938573e+02
414.331886    	7.782683e+02
415.331886    	7.630711e+02
416.331886    	7.482234e+02
417.331886    	7.337301e+02
418.331886    	7.195943e+02
419.331886    	7.058173e+02
420.331886    	6.924005e+02
421.331886    	6.793548e+02
422.331886    	6.667094e+02
423.331886    	6.544552e+02
424.331886    	6.425824e+02
425.331886    	6.310809e+02
426.331886    	6.199403e+02
427.331886    	6.091507e+02
428.331886    	5.987021e+02
429.331886    	5.885849e+02
430.331886    	5.787895e+02
431.331886    	5.693067e+02
432.331886    	5.601274e+02
433.331886    	5.512428e+02
434.331886    	5.426441e+02
435.331886    	5.343234e+02
436.331886    	5.262717e+02
437.331886    	5.184813e+02
438.331886    	5.109443e+02
439.331886    	5.036533e+02
440.331886    	4.966007e+02
441.331886    	4.897795e+02
442.331886    	4.831825e+02
443.331886    	4.768025e+02
444.331886    	4.706327e+02
445.331886    	4.646668e+02
446.331886    	4.588990e+02
447.331886    	4.533234e+02
448.331886    	4.479340e+02
449.331886    	4.427254e+02
450.331886    	4.376920e+02
451.331886    	4.328290e+02
452.331886    	4.281321e+02
453.331886    	4.235947e+02
454.331886    	4.192114e+02
455.331886    	4.149768e+02
456.331886    	4.108862e+02
457.331886    	4.069348e+02
458.331886    	4.031181e+02
459.331886    	3.994316e+02
460.331886    	3.958712e+02
461.331886    	3.924327e+02
462.331886    	3.891121e+02
463.331886    	3.859056e+02
464.331886    	3.828094e+02
465.331886    	3.798199e+02
466.331886    	3.769336e+02
467.331886    	3.741470e+02
468.331886    	3.714568e+02
469.331886    	3.688599e+02
470.331886    	3.663531e+02
471.331886    	3.639334e+02
472.331886    	3.615978e+02
473.331886    	3.593436e+02
474.331886    	3.571680e+02
475.331886    	3.550684e+02
476.331886    	3.530421e+02
477.331886    	3.510867e+02
478.331886    	3.491999e+02
479.331886    	3.473791e+02
480.331886    	3.456223e+02
481.331886    	3.439272e+02
482.331886    	3.422916e+02
483.331886    	3.407137e+02
484.331886    	3.391913e+02
485.331886    	3.377225e+02
486.331886    	3.363056e+02
487.331886    	3.349387e+02
488.331886    	3.336201e+02
489.331886    	3.323481e+02
490.331886    	3.311211e+02
491.331886    	3.299375e+02
492.331886    	3.287959e+02
493.331886    	3.276947e+02
494.331886    	3.266326e+02
495.331886    	3.256082e+02
496.331886    	3.246201e+02
497.331886    	3.236672e+02
498.331886    	3.227482e+02
499.331886    	3.218618e+02
500.331886    	3.210069e+02
501.331886    	3.201825e+02
502.331886    	3.193875e+02
503.331886    	3.186208e+02
504.331886    	3.178814e+02
505.331886    	3.171684e+02
506.331886    	3.164808e+02
507.331886    	3.158178e+02
508.331886    	3.151784e+02
509.331886    	3.145619e+02
510.331886    	3.139674e+02
511.331886    	3.133941e+02
512.331886    	3.128413e+02
513.331886    	3.123083e+02
514.331886    	3.117944e+02
515.331886    	3.112989e+02
516.331886    	3.108211e+02
517.331886    	3.103604e+02
518.331886    	3.099162e+02
519.331886    	3.094879e+02
520.331886    	3.090749e+02
521.331886    	3.086768e+02
522.331886    	3.082929e+02
523.331886    	3.079228e+02
524.331886    	3.075660e+02
525.331886    	3.072219e+02
526.331886    	3.068902e+02
527.331886    	3.065704e+02
528.331886    	3.062621e+02
529.331886    	3.059648e+02
530.331886    	3.056783e+02
531.331886    	3.054020e+02
532.331886    	3.051356e+02
533.331886    	3.048788e+02
534.331886    	3.046312e+02
535.331886    	3.043925e+02
536.331886    	3.041624e+02
537.331886    	3.039406e+02
538.331886    	3.037267e+02
539.331886    	3.035205e+02
540.331886    	3.033217e+02
541.331886    	3.031301e+02
542.331886    	3.029454e+02
543.331886    	3.027673e+02
544.331886    	3.025956e+02
545.331886    	3.024301e+02
546.331886    	3.022706e+02
547.331886    	3.021167e+02
548.331886    	3.019685e+02
549.331886    	3.018255e+02
550.331886    	3.016877e+02
551.331886    	3.015549e+02
552.331886    	3.014268e+02
553.331886    	3.013033e+02
554.331886    	3.011843e+02
555.331886    	3.010696e+02
556.331886    	3.009590e+02
557.331886    	3.008524e+02
558.331886    	3.007496e+02
559.331886    	3.006505e+02
560.331886    	3.005550e+02
561.331886    	3.004629e+02
562.331886    	3.003742e+02
563.331886    	3.002886e+02
564.331886    	3.002062e+02
565.331886    	3.001267e+02
566.331886    	3.000500e+02
567.331886    	2.999761e+02
568.331886    	2.999049e+02
569.331886    	2.998362e+02
570.331886    	2.997701e+02
571.331886    	2.997063e+02
572.331886    	2.996448e+02
573.331886    	2.995855e+02
574.331886    	2.995283e+02
575.331886    	2.994732e+02
576.331886    	2.994201e+02
577.331886    	2.993689e+02
578.331886    	2.993196e+02
579.331886    	2.992720e+02
580.331886    	2.992262e+02
581.331886    	2.991820e+02
582.331886    	2.991394e+02
583.331886    	2.990983e+02
584.331886    	2.990587e+02
585.331886    	2.990205e+02
586.331886    	2.989837e+02
587.331886    	2.989483e+02
588.331886    	2.989141e+02
589.331886    	2.988811e+02
590.331886    	2.988494e+02
591.331886    	2.988188e+02
592.331886    	2.987892e+02
593.331886    	2.987608e+02
594.331886    	2.987334e+02
595.331886    	2.987069e+02
596.331886    	2.986814e+02
597.331886    	2.986569e+02
598.331886    	2.986332e+02
599.331886    	2.986103e+02
