/*--------------------------------*- C++ -*----------------------------------*\
  =========                 |
  \\      /  F ield         | OpenFOAM: The Open Source CFD Toolbox
   \\    /   O peration     | Website:  https://openfoam.org
    \\  /    A nd           | Version:  13
     \\/     M anipulation  |
\*---------------------------------------------------------------------------*/
FoamFile
{
    format      ascii;
    class       volScalarField;
    location    "384.831886";
    object      T;
}
// * * * * * * * * * * * * * * * * * * * * * * * * * * * * * * * * * * * * * //

dimensions      [0 0 0 1 0 0 0];

internalField   nonuniform List<scalar> 
5712
(
1175.65
1175.72
1175.83
1175.94
1176.09
1176.2
1176.45
1176.54
1176.37
1176.47
1176.09
1176.19
1175.88
1175.98
1175.72
1175.79
1176.19
1176.32
1176.37
1176.56
1176.62
1176.79
1176.79
1177.01
1175.43
1175.05
1175.5
1175.15
1175.6
1175.24
1175.71
1175.37
1175.99
1175.78
1176.19
1175.92
1175.47
1175.69
1176.59
1176.93
1176.78
1177.03
1176.99
1177.27
1177.21
1177.42
1176.22
1176.57
1176.42
1176.68
1175.92
1176.25
1174.61
1174.35
1174.79
1174.51
1174.81
1174.47
1175.02
1174.71
1175.08
1174.63
1175.42
1175
1175.68
1175.26
1175.98
1175.56
1176.29
1176.35
1176.58
1176.61
1176.87
1176.94
1177.1
1177.18
1176.08
1176
1175.74
1175.73
1176.83
1176.83
1177.05
1177.01
1177.31
1177.37
1177.51
1177.54
1176.36
1176.23
1176.61
1176.42
1175.58
1175.07
1175.39
1174.82
1175.21
1174.69
1175.1
1174.51
1175.88
1175.39
1175.62
1175.07
1176.15
1175.66
1175.81
1175.26
1173.98
1173.4
1173.89
1173.31
1174.16
1173.62
1173.98
1173.43
1174.46
1174.04
1174.15
1173.7
1175.88
1176.56
1175.26
1174.79
1174.26
1176.45
1175.73
1174.98
1174.48
1173.91
1176.65
1176.01
1175.38
1174.78
1174.18
1172.86
1172.59
1172.57
1172.34
1173.13
1172.82
1172.76
1172.5
1173.6
1173.25
1173.07
1172.77
1176.28
1175.99
1175.49
1175.1
1174.75
1174.35
1174.17
1173.77
1173.37
1172.98
1176.52
1176.28
1175.8
1175.4
1175.12
1174.66
1174.43
1173.94
1173.55
1173.03
1176.16
1175.71
1176.47
1176.07
1176.86
1176.72
1177.14
1177.05
1175.75
1175.22
1175.44
1174.88
1176.74
1176.34
1176.91
1176.53
1177.37
1177.28
1177.54
1177.46
1176.03
1175.49
1176.2
1175.68
1174.91
1174.27
1173.85
1173.08
1174.66
1173.99
1173.68
1172.93
1175.14
1174.52
1174.01
1173.26
1175.36
1174.74
1174.24
1173.53
1172.48
1172.34
1172.08
1172.44
1172.36
1172.13
1172.66
1172.48
1172.22
1172.57
1172.48
1172.23
1173.02
1172.8
1172.5
1172.77
1172.65
1172.37
1175.63
1175.22
1174.79
1174.68
1174.31
1173.92
1173.96
1173.64
1173.28
1173.45
1173.18
1172.83
1172.93
1172.77
1172.44
1175.95
1175.49
1175
1174.86
1174.38
1173.88
1174.11
1173.68
1173.23
1173.51
1173.17
1172.76
1172.93
1172.72
1172.35
1177.37
1177.51
1177.5
1177.68
1177.03
1177.21
1177.18
1177.4
1177.41
1177.67
1177.44
1177.68
1177.5
1177.73
1177.56
1177.77
1177.76
1177.64
1177.85
1177.7
1177.79
1177.89
1177.83
1178
1177.57
1177.76
1177.85
1178.02
1177.97
1178.12
1177.96
1178.12
1177.93
1178.15
1177.88
1178.09
1177.97
1178.2
1177.97
1178.17
1178.02
1178.26
1178.1
1178.31
1178.15
1178.33
1178.29
1178.43
1177.69
1177.81
1177.86
1177.99
1177.34
1177.44
1177.53
1177.65
1178.08
1178.24
1177.93
1178.08
1178.02
1178.15
1178.18
1178.28
1177.72
1177.82
1177.9
1177.97
1178.22
1178.37
1178.37
1178.5
1178.26
1178.43
1178.39
1178.48
1178.14
1178.33
1178.25
1178.36
1178.38
1178.52
1178.51
1178.58
1178.51
1178.62
1178.61
1178.66
1177.9
1177.77
1178.12
1177.98
1177.91
1177.77
1178.14
1178
1177.93
1177.81
1178.18
1178.05
1177.56
1177.13
1177.82
1178.02
1178.22
1177.04
1177.46
1177.69
1177.89
1178.11
1177.22
1177.64
1177.93
1178.11
1178.25
1177.55
1177.25
1177.77
1177.48
1177.57
1177.29
1177.81
1177.53
1177.63
1177.36
1177.88
1177.63
1176.9
1176.66
1177.35
1177.11
1177.6
1177.35
1177.79
1177.54
1178
1177.76
1177.14
1176.99
1177.56
1177.42
1177.85
1177.68
1178.02
1177.82
1178.14
1177.9
1177.83
1177.76
1178.01
1177.99
1177.44
1177.39
1177.66
1177.67
1178.23
1178.15
1178.07
1177.95
1178.15
1178.17
1178.29
1178.31
1177.83
1177.87
1177.98
1178.04
1178.36
1178.31
1178.48
1178.44
1178.35
1178.21
1178.38
1178.18
1178.21
1178.03
1178.27
1178.04
1178.47
1178.36
1178.48
1178.3
1178.57
1178.47
1178.57
1178.41
1176.85
1176.44
1176.05
1176.99
1176.54
1176.15
1176.91
1176.5
1176.1
1177.06
1176.61
1176.2
1177
1176.6
1176.19
1177.18
1176.7
1176.27
1176.34
1175.94
1175.5
1176.78
1176.37
1175.93
1177.03
1176.6
1176.15
1177.2
1176.77
1176.34
1177.31
1176.8
1176.33
1176.73
1176.29
1175.8
1177.15
1176.71
1176.22
1177.38
1176.91
1176.41
1177.47
1176.99
1176.48
1177.43
1176.9
1176.38
1178.2
1177.95
1177.41
1176.47
1178.12
1177.86
1177.31
1176.35
1178.23
1177.98
1177.44
1176.49
1178.18
1177.91
1177.35
1176.4
1178.28
1178.01
1177.5
1176.57
1178.3
1178.01
1177.46
1176.52
1178.28
1177.97
1177.38
1176.42
1178.34
1177.99
1177.38
1176.41
1178.38
1178.08
1177.55
1176.61
1178.37
1178.05
1177.56
1176.72
1178.31
1178.03
1177.54
1176.68
1178.29
1177.99
1177.53
1176.74
1178.44
1178.12
1177.54
1176.58
1178.44
1178.1
1177.58
1176.73
1178.51
1178.15
1177.56
1176.6
1178.5
1178.15
1177.61
1176.76
1178.18
1177.96
1177.47
1176.58
1178.07
1177.87
1177.45
1176.68
1178.19
1177.96
1177.48
1176.6
1178.08
1177.87
1177.45
1176.68
1178.21
1177.97
1177.5
1176.64
1178.1
1177.88
1177.46
1176.7
1178.21
1177.96
1177.51
1176.7
1178.13
1177.89
1177.47
1176.73
1178.2
1177.93
1177.51
1176.77
1177.91
1177.73
1177.34
1176.79
1177.72
1177.56
1177.16
1176.65
1177.93
1177.74
1177.35
1176.8
1177.74
1177.57
1177.17
1176.66
1177.97
1177.76
1177.37
1176.81
1177.78
1177.59
1177.18
1176.66
1178.03
1177.79
1177.39
1176.83
1177.84
1177.61
1177.2
1176.68
1178.1
1177.83
1177.42
1176.86
1177.9
1177.65
1177.22
1176.69
1178.24
1177.91
1177.46
1176.87
1178.06
1177.74
1177.27
1176.73
1178.17
1177.87
1177.44
1176.86
1177.98
1177.69
1177.24
1176.71
1178.3
1177.95
1177.47
1176.88
1178.13
1177.78
1177.3
1176.75
1178.36
1177.99
1177.5
1176.9
1178.2
1177.82
1177.33
1176.77
1175.04
1173.88
1172.89
1172.08
1171.46
1174.97
1173.82
1172.84
1172.03
1171.4
1175.05
1173.89
1172.89
1172.08
1171.46
1174.98
1173.83
1172.84
1172.03
1171.41
1175.06
1173.89
1172.9
1172.09
1171.46
1175.03
1173.88
1172.88
1172.07
1171.45
1175.01
1173.85
1172.85
1172.04
1171.42
1175.02
1173.86
1172.86
1172.05
1171.42
1175.07
1173.9
1172.9
1172.09
1171.47
1175.02
1173.82
1172.81
1172
1171.38
1175.06
1173.88
1172.88
1172.07
1171.45
1175
1173.8
1172.8
1171.98
1171.36
1175.07
1173.9
1172.9
1172.09
1171.46
1175.01
1173.81
1172.8
1171.99
1171.37
1175.09
1173.91
1172.91
1172.09
1171.47
1175.02
1173.8
1172.8
1171.99
1171.36
1175.03
1173.85
1172.86
1172.05
1171.43
1174.95
1173.76
1172.76
1171.95
1171.33
1175.03
1173.85
1172.86
1172.05
1171.43
1174.95
1173.76
1172.76
1171.95
1171.33
1175.03
1173.84
1172.85
1172.04
1171.41
1174.95
1173.75
1172.75
1171.94
1171.32
1175.01
1173.81
1172.81
1172
1171.38
1174.94
1173.73
1172.73
1171.92
1171.3
1174.96
1173.76
1172.76
1171.94
1171.32
1171.33
1171.16
1171.4
1171.23
1171.54
1171.35
1171.71
1171.49
1171.89
1171.63
1172.17
1171.86
1172.02
1171.73
1172.3
1172.01
1172.45
1172.18
1169.47
1167.4
1165.62
1164.19
1163.14
1169.49
1167.41
1165.61
1164.17
1163.1
1169.5
1167.42
1165.63
1164.2
1163.15
1169.52
1167.42
1165.62
1164.17
1163.11
1169.57
1167.46
1165.66
1164.21
1163.16
1169.59
1167.46
1165.65
1164.19
1163.12
1169.66
1167.51
1165.7
1164.24
1163.19
1169.67
1167.51
1165.68
1164.21
1163.14
1169.77
1167.58
1165.74
1164.28
1163.22
1169.76
1167.57
1165.72
1164.24
1163.17
1170
1167.75
1165.87
1164.38
1163.31
1169.98
1167.72
1165.84
1164.34
1163.26
1169.89
1167.66
1165.8
1164.33
1163.26
1169.86
1167.64
1165.77
1164.28
1163.21
1170.12
1167.84
1165.94
1164.44
1163.36
1170.1
1167.82
1165.91
1164.4
1163.32
1170.24
1167.94
1166.02
1164.5
1163.42
1170.24
1167.93
1166
1164.47
1163.38
1177.81
1177.58
1177.34
1177.61
1177.19
1177.23
1177.25
1177.31
1177.18
1177.26
1176.85
1176.95
1176.67
1176.77
1176.91
1177
1177
1177.06
1177.02
1177.06
1177.58
1177.61
1176.7
1176.34
1176.26
1176.21
1176.53
1176.85
1176.48
1176.88
1176.15
1175.66
1176.75
1176.64
1176.26
1176.63
1176.48
1176.43
1177.14
1177.13
1176.89
1176.95
1177.06
1177.12
1177
1176.88
1176.47
1176.53
1176.72
1176.78
1177.44
1177.51
1177.35
1177.39
1177.26
1177.26
1176.98
1176.68
1177
1178.03
1178.25
1178.34
1178.31
1178.16
1177.95
1178.14
1178.22
1178.17
1177.99
1176.94
1177.05
1177.06
1176.95
1176.74
1176.58
1176.68
1176.68
1176.57
1176.35
1176.5
1176.6
1176.61
1176.5
1176.29
1176.44
1176.55
1176.54
1176.44
1176.22
1176.77
1176.88
1176.88
1176.78
1176.57
1177.35
1177.65
1177.79
1177.81
1177.7
1177.02
1177.34
1177.5
1177.51
1177.39
1177.24
1177.46
1177.58
1177.56
1177.39
1176.65
1176.96
1177.11
1177.11
1176.97
1176.15
1176.47
1176.62
1176.63
1176.48
1177.04
1177.21
1177.27
1177.2
1177.01
1176.98
1177.19
1177.28
1177.25
1177.07
1176.59
1176.79
1176.88
1176.84
1176.66
1176.91
1177.05
1177.09
1177.02
1176.82
1176.77
1176.93
1176.99
1176.93
1176.74
1176.7
1176.84
1176.88
1176.8
1176.6
1177.6
1177.85
1177.97
1177.96
1177.84
1177.45
1177.64
1177.72
1177.68
1177.49
1177.17
1177.32
1177.36
1177.29
1177.09
1177.21
1177.35
1177.38
1177.3
1177.1
1177.35
1177.5
1177.55
1177.49
1177.29
1177.39
1177.53
1177.57
1177.49
1177.29
1177.25
1177.38
1177.4
1177.31
1177.1
1177.14
1177.26
1177.28
1177.19
1176.98
1176.72
1176.84
1176.86
1176.77
1176.56
1176.77
1176.89
1176.9
1176.8
1176.59
1176.98
1177.12
1177.15
1177.06
1176.86
1177.04
1177.16
1177.18
1177.09
1176.89
1177.89
1178.12
1178.21
1178.19
1178.05
1177.83
1178.01
1178.08
1178.02
1177.84
1177.72
1177.93
1178.02
1178
1177.84
1177.68
1177.84
1177.89
1177.83
1177.64
1177.53
1177.68
1177.72
1177.65
1177.45
1177.58
1177.76
1177.83
1177.78
1177.6
1177.24
1177.36
1177.38
1177.29
1177.09
1176.92
1177.04
1177.05
1176.95
1176.74
1177.26
1177.39
1177.42
1177.34
1177.14
1177.75
1177.6
1177.74
1177.57
1178.07
1177.9
1178.08
1177.93
1177.72
1177.7
1177.57
1177.59
1178.07
1178.05
1177.91
1177.95
1177.41
1177.06
1177.27
1176.94
1177.4
1177.09
1177.24
1176.94
1177.24
1177.37
1177.31
1177.4
1177.13
1176.99
1177.37
1177.2
1177.44
1177.26
1177.7
1177.52
1177.8
1177.63
1177.05
1176.86
1177.15
1176.94
1176.79
1176.58
1176.74
1176.45
1176.63
1176.36
1176.76
1176.42
1176.62
1176.32
1176.81
1176.36
1176.72
1176.31
1176.54
1176.12
1176.29
1175.86
1177.59
1177.49
1177.51
1177.4
1178.01
1177.98
1177.93
1177.9
1177.1
1176.83
1177.17
1176.93
1177.39
1177.29
1177.24
1177.16
1177.82
1177.8
1177.67
1177.68
1176.98
1176.72
1176.81
1176.58
1176.67
1176.16
1176.24
1175.66
1176.71
1176.17
1176.32
1175.71
1176.55
1176.06
1176.13
1175.57
1176.37
1175.89
1175.98
1175.43
1176.72
1176.55
1176.4
1176.14
1176.74
1176.61
1176.35
1176.1
1176.79
1176.72
1176.27
1176.06
1177.61
1178.05
1177.17
1176.69
1176.06
1178.06
1177.64
1177.21
1176.7
1175.96
1178.02
1177.54
1176.99
1176.36
1175.71
1176.28
1176.16
1175.45
1175.2
1176.41
1176.28
1175.5
1175.25
1176.59
1176.49
1175.55
1175.31
1178.05
1177.98
1177.6
1177.52
1177.13
1177.05
1176.55
1176.44
1175.47
1175.21
1178.02
1177.94
1177.49
1177.32
1176.88
1176.67
1176.16
1175.91
1175.17
1174.85
1177.35
1177.06
1177.27
1176.97
1177.95
1177.91
1177.88
1177.85
1176.58
1176.16
1176.68
1176.28
1177.19
1176.85
1177.06
1176.7
1177.79
1177.74
1177.67
1177.61
1176.51
1176.03
1176.36
1175.85
1175.74
1175.19
1174.66
1173.96
1175.89
1175.36
1174.86
1174.21
1175.63
1175.06
1174.48
1173.77
1175.52
1174.91
1174.39
1173.69
1176.11
1175.99
1175.36
1175.33
1176.23
1176.1
1175.39
1175.37
1176.4
1176.23
1175.41
1175.39
1177.84
1177.59
1177.37
1177.13
1176.91
1176.7
1176.33
1176.13
1175.35
1175.34
1177.8
1177.52
1177.1
1176.84
1176.47
1176.28
1175.82
1175.73
1175.14
1175.18
1178.59
1178.59
1178.43
1178.49
1178.36
1178.36
1178.2
1178.26
1178.74
1178.84
1178.6
1178.7
1178.74
1178.83
1178.58
1178.68
1178.6
1178.74
1178.63
1178.73
1178.81
1178.68
1178.35
1178.18
1178.12
1177.95
1178.42
1178.23
1178.48
1178.31
1178.5
1178.32
1178.89
1178.9
1178.76
1178.77
1178.89
1178.91
1178.75
1178.77
1178.89
1178.92
1178.78
1178.83
1178.62
1178.68
1178.46
1178.56
1178.63
1178.63
1178.56
1178.58
1178.37
1178.36
1178.29
1178.3
1178.73
1178.75
1178.79
1178.8
1178.45
1178.5
1178.32
1178.4
1178.18
1178.21
1178.05
1178.1
1178.63
1178.69
1178.51
1178.6
1178.84
1178.88
1178.84
1178.85
1178.9
1178.92
1178.88
1178.87
1178.74
1178.81
1178.78
1178.8
1178.63
1178.72
1178.71
1178.74
1178.95
1178.94
1178.95
1178.92
1178.95
1178.93
1178.95
1178.91
1178.93
1178.91
1178.94
1178.91
1178.66
1178.4
1178.82
1178.91
1178.92
1178.4
1178.65
1178.81
1178.9
1178.9
1178.4
1178.66
1178.82
1178.89
1178.88
1178.85
1178.69
1178.82
1178.65
1178.85
1178.71
1178.82
1178.67
1178.86
1178.73
1178.84
1178.69
1178.4
1178.33
1178.64
1178.56
1178.79
1178.69
1178.87
1178.75
1178.84
1178.71
1178.41
1178.38
1178.66
1178.62
1178.81
1178.74
1178.87
1178.76
1178.83
1178.7
1178.66
1178.66
1178.59
1178.61
1178.4
1178.42
1178.32
1178.37
1178.75
1178.71
1178.8
1178.75
1178.5
1178.54
1178.4
1178.44
1178.22
1178.28
1178.11
1178.17
1178.67
1178.64
1178.58
1178.55
1178.8
1178.71
1178.76
1178.62
1178.85
1178.74
1178.8
1178.65
1178.74
1178.66
1178.7
1178.56
1178.66
1178.57
1178.64
1178.49
1178.5
1178.31
1178.41
1178.19
1178.53
1178.32
1178.43
1178.2
1178.55
1178.33
1178.46
1178.19
1178.19
1177.94
1178.41
1178.16
1178.53
1178.28
1178.58
1178.32
1178.47
1178.16
1178.26
1177.97
1178.48
1178.18
1178.57
1178.26
1178.56
1178.24
1178.44
1178.08
1178.71
1178.3
1177.65
1176.63
1178.59
1178.18
1177.53
1176.5
1178.72
1178.31
1177.66
1176.64
1178.6
1178.19
1177.55
1176.53
1178.72
1178.31
1177.7
1176.71
1178.65
1178.25
1177.63
1176.63
1178.52
1178.13
1177.5
1176.49
1178.42
1178.05
1177.42
1176.44
1178.69
1178.29
1177.69
1176.71
1178.63
1178.23
1177.69
1176.81
1178.71
1178.3
1177.73
1176.8
1178.65
1178.24
1177.7
1176.86
1178.64
1178.25
1177.64
1176.64
1178.6
1178.21
1177.66
1176.79
1178.57
1178.2
1177.6
1176.62
1178.56
1178.18
1177.64
1176.78
1178.75
1178.34
1177.73
1176.76
1178.7
1178.29
1177.73
1176.87
1178.75
1178.33
1177.73
1176.77
1178.69
1178.28
1177.73
1176.87
1178.73
1178.31
1177.73
1176.8
1178.68
1178.26
1177.72
1176.88
1178.69
1178.28
1177.73
1176.85
1178.65
1178.24
1177.71
1176.89
1178.64
1178.23
1177.71
1176.91
1178.58
1178.17
1177.64
1177.02
1178.42
1178.01
1177.47
1176.89
1178.58
1178.17
1177.64
1177.02
1178.42
1178
1177.47
1176.89
1178.58
1178.16
1177.64
1177.02
1178.42
1178
1177.46
1176.89
1178.57
1178.16
1177.64
1177.02
1178.41
1177.99
1177.46
1176.88
1178.56
1178.14
1177.63
1177.02
1178.4
1177.98
1177.45
1176.87
1178.5
1178.09
1177.59
1176.98
1178.36
1177.94
1177.42
1176.84
1178.54
1178.12
1177.61
1177
1178.38
1177.96
1177.43
1176.86
1178.46
1178.06
1177.55
1176.95
1178.31
1177.9
1177.39
1176.82
1178.41
1178.03
1177.53
1176.93
1178.26
1177.86
1177.36
1176.8
1175.14
1173.94
1172.93
1172.11
1171.48
1175.06
1173.88
1172.87
1172.05
1171.42
1175.13
1173.94
1172.93
1172.11
1171.48
1175.06
1173.88
1172.87
1172.05
1171.43
1175.14
1173.94
1172.93
1172.11
1171.48
1175.1
1173.92
1172.91
1172.09
1171.46
1175.05
1173.87
1172.87
1172.05
1171.43
1175.04
1173.87
1172.87
1172.05
1171.43
1175.13
1173.93
1172.92
1172.11
1171.48
1175.07
1173.85
1172.83
1172.02
1171.39
1175.13
1173.92
1172.91
1172.09
1171.46
1175.06
1173.83
1172.82
1172
1171.37
1175.12
1173.92
1172.91
1172.1
1171.47
1175.05
1173.83
1172.82
1172
1171.37
1175.11
1173.92
1172.91
1172.1
1171.47
1175.03
1173.81
1172.8
1171.99
1171.36
1175.13
1173.92
1172.9
1172.08
1171.45
1175.06
1173.82
1172.8
1171.98
1171.35
1175.13
1173.91
1172.89
1172.07
1171.44
1175.05
1173.81
1172.8
1171.97
1171.35
1175.12
1173.9
1172.88
1172.06
1171.43
1175.04
1173.8
1172.79
1171.97
1171.34
1175.09
1173.85
1172.84
1172.02
1171.39
1175.02
1173.78
1172.76
1171.94
1171.32
1175.03
1173.8
1172.78
1171.96
1171.33
1173.66
1173.46
1173.63
1173.43
1173.57
1173.36
1173.47
1173.26
1173.3
1173.13
1172.89
1172.67
1173.08
1172.88
1172.73
1172.48
1172.59
1172.34
1171.17
1168.61
1166.52
1164.9
1163.77
1171.22
1168.64
1166.52
1164.89
1163.73
1171.14
1168.59
1166.51
1164.89
1163.76
1171.19
1168.61
1166.51
1164.87
1163.72
1171.09
1168.56
1166.49
1164.87
1163.74
1171.14
1168.58
1166.48
1164.85
1163.71
1171.01
1168.5
1166.45
1164.84
1163.72
1171.06
1168.53
1166.45
1164.83
1163.68
1170.9
1168.43
1166.39
1164.8
1163.68
1170.97
1168.47
1166.4
1164.79
1163.65
1170.62
1168.24
1166.25
1164.69
1163.58
1170.67
1168.26
1166.26
1164.68
1163.56
1170.76
1168.34
1166.33
1164.75
1163.63
1170.83
1168.38
1166.34
1164.74
1163.61
1170.49
1168.14
1166.18
1164.63
1163.53
1170.52
1168.15
1166.17
1164.61
1163.5
1170.36
1168.04
1166.1
1164.56
1163.47
1170.37
1168.03
1166.08
1164.54
1163.44
1178.03
1177.81
1178
1178.23
1178.59
1178.44
1178.59
1178.42
1178.36
1178.19
1178.36
1178.21
1175.01
1175.06
1175.19
1175.4
1175.68
1176.01
1174.99
1175.04
1175.17
1175.36
1175.62
1175.91
1174.88
1174.7
1174.94
1174.77
1175.09
1174.93
1175.33
1175.2
1175.64
1175.55
1176
1175.9
1176.37
1176.7
1176.99
1177.24
1177.42
1177.55
1176.23
1176.54
1176.81
1177.05
1177.23
1177.35
1175.23
1175.32
1175.3
1175.18
1174.96
1175.28
1175.37
1175.36
1175.24
1175.01
1175.42
1175.51
1175.49
1175.37
1175.15
1175.63
1175.72
1175.7
1175.58
1175.36
1175.9
1176
1175.99
1175.87
1175.65
1176.24
1176.34
1176.33
1176.22
1176
1175.21
1175.3
1175.29
1175.17
1174.94
1175.27
1175.36
1175.34
1175.22
1175
1175.39
1175.48
1175.47
1175.35
1175.13
1175.59
1175.68
1175.67
1175.55
1175.33
1175.84
1175.94
1175.93
1175.81
1175.59
1176.14
1176.24
1176.23
1176.12
1175.9
1175.1
1175.19
1175.18
1175.06
1174.83
1174.92
1175.01
1174.99
1174.87
1174.65
1175.17
1175.25
1175.24
1175.12
1174.89
1174.99
1175.08
1175.06
1174.94
1174.72
1175.31
1175.4
1175.39
1175.27
1175.05
1175.16
1175.25
1175.23
1175.11
1174.89
1175.55
1175.64
1175.63
1175.51
1175.29
1175.43
1175.52
1175.51
1175.39
1175.17
1175.86
1175.96
1175.95
1175.83
1175.61
1175.78
1175.87
1175.86
1175.74
1175.52
1176.23
1176.32
1176.32
1176.21
1175.98
1176.14
1176.23
1176.23
1176.11
1175.89
1176.6
1176.7
1176.7
1176.59
1176.37
1176.94
1177.05
1177.06
1176.96
1176.74
1177.25
1177.37
1177.38
1177.29
1177.08
1177.5
1177.64
1177.67
1177.58
1177.38
1177.7
1177.85
1177.89
1177.82
1177.62
1177.84
1178
1178.05
1177.98
1177.78
1176.47
1176.57
1176.57
1176.46
1176.24
1176.78
1176.89
1176.89
1176.79
1176.57
1177.06
1177.18
1177.19
1177.1
1176.88
1177.3
1177.43
1177.45
1177.36
1177.16
1177.49
1177.63
1177.66
1177.57
1177.37
1177.62
1177.76
1177.79
1177.71
1177.51
1175.03
1175.13
1175.31
1175.56
1175.88
1176.26
1175.01
1175.11
1175.28
1175.52
1175.82
1176.16
1174.9
1174.72
1175.01
1174.84
1175.21
1175.06
1175.49
1175.38
1175.85
1175.78
1176.27
1176.2
1176.67
1177.03
1177.33
1177.54
1177.63
1177.62
1176.51
1176.83
1177.1
1177.29
1177.39
1177.41
1175.25
1175.34
1175.32
1175.2
1174.98
1175.35
1175.44
1175.42
1175.3
1175.08
1175.53
1175.62
1175.6
1175.48
1175.26
1175.78
1175.87
1175.86
1175.74
1175.52
1176.11
1176.2
1176.19
1176.07
1175.85
1176.49
1176.59
1176.58
1176.46
1176.24
1175.24
1175.32
1175.31
1175.19
1174.96
1175.33
1175.42
1175.41
1175.29
1175.06
1175.51
1175.59
1175.58
1175.46
1175.24
1175.74
1175.83
1175.82
1175.7
1175.48
1176.04
1176.14
1176.12
1176.01
1175.78
1176.38
1176.48
1176.47
1176.35
1176.13
1175.13
1175.21
1175.2
1175.08
1174.85
1174.94
1175.03
1175.01
1174.89
1174.67
1175.24
1175.32
1175.31
1175.19
1174.96
1175.06
1175.15
1175.14
1175.02
1174.79
1175.43
1175.52
1175.51
1175.39
1175.16
1175.28
1175.37
1175.36
1175.24
1175.01
1175.72
1175.81
1175.79
1175.67
1175.45
1175.61
1175.69
1175.68
1175.56
1175.34
1176.08
1176.17
1176.16
1176.04
1175.82
1176
1176.09
1176.08
1175.96
1175.74
1176.5
1176.59
1176.58
1176.47
1176.24
1176.43
1176.52
1176.51
1176.39
1176.17
1176.9
1176.99
1176.99
1176.88
1176.66
1177.27
1177.37
1177.37
1177.27
1177.05
1177.58
1177.69
1177.7
1177.6
1177.38
1177.79
1177.92
1177.94
1177.85
1177.64
1177.9
1178.05
1178.08
1178
1177.8
1177.91
1178.07
1178.11
1178.04
1177.85
1176.74
1176.84
1176.83
1176.72
1176.5
1177.07
1177.17
1177.17
1177.06
1176.85
1177.34
1177.45
1177.46
1177.36
1177.14
1177.54
1177.66
1177.68
1177.58
1177.37
1177.65
1177.78
1177.81
1177.72
1177.52
1177.67
1177.81
1177.84
1177.76
1177.56
1177.71
1177.72
1177.08
1176.67
1176.67
1176.56
1176.93
1177.96
1177.86
1177.87
1177.6
1177.55
1177.64
1177.35
1177.32
1177.15
1177.96
1177.89
1177.58
1177.54
1177.73
1177.66
1177.42
1177.37
1177.04
1177.02
1177.34
1177.33
1177.83
1177.79
1177.94
1177.79
1177.74
1177.89
1177.46
1177.13
1177.54
1178.15
1178.37
1178.44
1178.41
1178.25
1178.05
1178.24
1178.3
1178.25
1178.07
1177.31
1177.42
1177.42
1177.31
1177.09
1176.9
1177
1176.99
1176.88
1176.66
1176.9
1177
1177
1176.88
1176.66
1176.79
1176.89
1176.88
1176.77
1176.55
1177.17
1177.27
1177.26
1177.15
1176.93
1178.35
1178.54
1178.6
1178.55
1178.4
1178.24
1178.42
1178.48
1178.42
1178.26
1178.17
1178.32
1178.37
1178.3
1178.1
1177.94
1178.11
1178.15
1178.08
1177.89
1177.81
1177.93
1177.95
1177.86
1177.65
1177.91
1178.05
1178.08
1178
1177.8
1177.6
1177.71
1177.72
1177.62
1177.41
1177.57
1177.69
1177.7
1177.61
1177.4
1177.4
1177.51
1177.52
1177.42
1177.2
1178.35
1178.53
1178.6
1178.55
1178.39
1178.17
1178.32
1178.36
1178.28
1178.08
1177.84
1177.96
1177.97
1177.88
1177.67
1177.79
1177.9
1177.91
1177.82
1177.6
1177.98
1178.11
1178.13
1178.04
1177.84
1177.91
1178.03
1178.05
1177.96
1177.75
1177.67
1177.78
1177.79
1177.68
1177.47
1177.62
1177.72
1177.73
1177.63
1177.41
1177.28
1177.38
1177.39
1177.28
1177.06
1177.25
1177.36
1177.35
1177.25
1177.03
1177.59
1177.7
1177.7
1177.6
1177.39
1177.57
1177.68
1177.68
1177.58
1177.36
1178.25
1178.45
1178.52
1178.48
1178.32
1178.1
1178.27
1178.32
1178.26
1178.06
1178.27
1178.44
1178.5
1178.45
1178.27
1178.07
1178.21
1178.25
1178.17
1177.96
1178
1178.13
1178.15
1178.06
1177.86
1178.17
1178.32
1178.36
1178.29
1178.09
1177.7
1177.81
1177.82
1177.72
1177.5
1177.37
1177.47
1177.47
1177.36
1177.15
1177.78
1177.9
1177.91
1177.81
1177.6
1177.44
1177.65
1177.74
1177.71
1177.59
1177.33
1177.8
1177.78
1178.13
1178.14
1177.76
1177.73
1178.11
1178.09
1177.44
1177.06
1177.43
1177.09
1177.39
1177.41
1177.15
1177.81
1177.79
1178.15
1178.16
1177.77
1177.73
1178.13
1178.1
1177.42
1177.01
1177.42
1177.06
1177.38
1177.4
1177.12
1177.81
1177.79
1178.15
1178.16
1177.76
1177.72
1178.13
1178.09
1177.4
1176.91
1177.4
1176.97
1177.36
1177.38
1177.04
1177.74
1177.72
1178.09
1178.1
1177.69
1177.64
1178.06
1178.02
1177.3
1176.78
1177.3
1176.84
1177.27
1177.29
1176.93
1177.61
1177.59
1177.95
1177.97
1177.56
1177.5
1177.93
1177.89
1177.17
1176.68
1177.17
1176.72
1177.14
1177.16
1176.82
1177.37
1177.35
1177.71
1177.73
1177.32
1177.28
1177.69
1177.65
1176.95
1176.5
1176.96
1176.55
1176.93
1176.95
1176.64
1178.65
1178.65
1178.42
1178.42
1178.64
1178.63
1178.41
1178.39
1178.8
1178.91
1178.79
1178.89
1178.79
1178.76
1178.86
1178.67
1178.66
1178.44
1178.44
1178.65
1178.63
1178.42
1178.4
1178.83
1178.91
1178.81
1178.89
1178.8
1178.77
1178.85
1178.68
1178.67
1178.44
1178.45
1178.65
1178.62
1178.42
1178.4
1178.82
1178.87
1178.8
1178.85
1178.78
1178.74
1178.81
1178.61
1178.6
1178.38
1178.39
1178.58
1178.55
1178.36
1178.33
1178.74
1178.75
1178.72
1178.73
1178.69
1178.65
1178.7
1178.48
1178.46
1178.25
1178.26
1178.43
1178.4
1178.22
1178.19
1178.59
1178.58
1178.57
1178.57
1178.53
1178.49
1178.54
1178.23
1178.21
1178
1178.01
1178.18
1178.15
1177.97
1177.95
1178.34
1178.36
1178.32
1178.34
1178.28
1178.24
1178.31
1175.64
1175.7
1175.83
1175.93
1176.09
1176.2
1176.45
1176.54
1176.36
1176.47
1176.08
1176.19
1175.88
1175.97
1175.71
1175.78
1176.18
1176.32
1176.37
1176.56
1176.62
1176.79
1176.79
1177.01
1175.42
1175.04
1175.49
1175.14
1175.6
1175.24
1175.71
1175.37
1175.99
1175.78
1176.18
1175.92
1175.47
1175.69
1176.59
1176.93
1176.78
1177.03
1176.99
1177.27
1177.21
1177.42
1176.22
1176.57
1176.42
1176.68
1175.91
1176.25
1174.61
1174.34
1174.79
1174.5
1174.8
1174.47
1175.02
1174.71
1175.08
1174.63
1175.42
1175
1175.68
1175.26
1175.98
1175.56
1176.29
1176.35
1176.58
1176.61
1176.87
1176.94
1177.1
1177.18
1176.08
1176
1175.74
1175.73
1176.83
1176.83
1177.05
1177.01
1177.31
1177.37
1177.51
1177.54
1176.36
1176.23
1176.61
1176.41
1175.58
1175.07
1175.39
1174.82
1175.21
1174.69
1175.1
1174.51
1175.88
1175.39
1175.62
1175.07
1176.15
1175.66
1175.81
1175.26
1173.97
1173.39
1173.88
1173.3
1174.16
1173.62
1173.98
1173.43
1174.46
1174.04
1174.15
1173.7
1175.88
1176.56
1175.26
1174.79
1174.26
1176.45
1175.73
1174.98
1174.48
1173.91
1176.65
1176.01
1175.38
1174.78
1174.18
1172.85
1172.58
1172.57
1172.33
1173.13
1172.82
1172.76
1172.5
1173.6
1173.25
1173.07
1172.77
1176.28
1175.99
1175.49
1175.1
1174.75
1174.35
1174.17
1173.77
1173.37
1172.98
1176.52
1176.28
1175.8
1175.4
1175.12
1174.66
1174.43
1173.94
1173.55
1173.03
1176.16
1175.71
1176.47
1176.07
1176.86
1176.72
1177.14
1177.05
1175.75
1175.22
1175.44
1174.88
1176.74
1176.34
1176.91
1176.53
1177.37
1177.28
1177.54
1177.46
1176.03
1175.49
1176.2
1175.68
1174.91
1174.27
1173.85
1173.08
1174.66
1173.99
1173.68
1172.93
1175.14
1174.52
1174.01
1173.26
1175.36
1174.74
1174.24
1173.53
1172.48
1172.33
1172.08
1172.44
1172.36
1172.13
1172.66
1172.48
1172.22
1172.57
1172.48
1172.23
1173.02
1172.8
1172.5
1172.77
1172.65
1172.37
1175.63
1175.22
1174.78
1174.68
1174.31
1173.92
1173.96
1173.64
1173.28
1173.45
1173.18
1172.83
1172.93
1172.77
1172.44
1175.95
1175.49
1175
1174.86
1174.38
1173.88
1174.11
1173.68
1173.23
1173.51
1173.17
1172.76
1172.93
1172.72
1172.35
1177.37
1177.51
1177.5
1177.68
1177.03
1177.21
1177.18
1177.4
1177.4
1177.66
1177.44
1177.68
1177.5
1177.73
1177.56
1177.77
1177.76
1177.64
1177.85
1177.7
1177.79
1177.89
1177.83
1178
1177.57
1177.76
1177.85
1178.02
1177.97
1178.12
1177.96
1178.12
1177.92
1178.15
1177.88
1178.08
1177.97
1178.2
1177.97
1178.17
1178.02
1178.26
1178.1
1178.31
1178.15
1178.33
1178.29
1178.43
1177.69
1177.81
1177.86
1177.99
1177.34
1177.44
1177.53
1177.65
1178.08
1178.24
1177.93
1178.08
1178.02
1178.15
1178.18
1178.28
1177.72
1177.82
1177.89
1177.97
1178.22
1178.37
1178.37
1178.5
1178.26
1178.43
1178.39
1178.48
1178.14
1178.33
1178.25
1178.36
1178.38
1178.52
1178.51
1178.58
1178.51
1178.62
1178.61
1178.66
1177.9
1177.76
1178.12
1177.98
1177.91
1177.77
1178.14
1178
1177.93
1177.81
1178.18
1178.05
1177.56
1177.13
1177.82
1178.02
1178.22
1177.04
1177.46
1177.69
1177.89
1178.11
1177.22
1177.64
1177.93
1178.11
1178.25
1177.54
1177.25
1177.77
1177.48
1177.57
1177.29
1177.81
1177.53
1177.63
1177.36
1177.88
1177.63
1176.9
1176.66
1177.35
1177.11
1177.6
1177.35
1177.79
1177.54
1178
1177.76
1177.14
1176.99
1177.56
1177.42
1177.85
1177.68
1178.02
1177.82
1178.14
1177.9
1177.83
1177.76
1178.01
1177.99
1177.44
1177.39
1177.66
1177.67
1178.23
1178.15
1178.07
1177.95
1178.15
1178.17
1178.29
1178.31
1177.83
1177.87
1177.98
1178.04
1178.36
1178.31
1178.48
1178.44
1178.35
1178.21
1178.38
1178.18
1178.2
1178.03
1178.27
1178.04
1178.47
1178.36
1178.48
1178.3
1178.57
1178.47
1178.56
1178.41
1176.84
1176.44
1176.05
1176.99
1176.53
1176.14
1176.91
1176.5
1176.1
1177.06
1176.61
1176.2
1177
1176.6
1176.19
1177.18
1176.7
1176.27
1176.34
1175.94
1175.5
1176.78
1176.37
1175.93
1177.03
1176.6
1176.15
1177.2
1176.77
1176.34
1177.31
1176.8
1176.33
1176.73
1176.29
1175.8
1177.15
1176.71
1176.22
1177.38
1176.91
1176.41
1177.47
1176.99
1176.48
1177.43
1176.9
1176.38
1178.19
1177.95
1177.41
1176.47
1178.12
1177.86
1177.3
1176.35
1178.23
1177.98
1177.44
1176.49
1178.18
1177.91
1177.35
1176.4
1178.28
1178.01
1177.5
1176.57
1178.3
1178.01
1177.46
1176.52
1178.28
1177.97
1177.38
1176.42
1178.34
1177.99
1177.38
1176.41
1178.38
1178.08
1177.55
1176.61
1178.37
1178.05
1177.56
1176.72
1178.31
1178.03
1177.54
1176.68
1178.29
1177.99
1177.53
1176.74
1178.44
1178.12
1177.54
1176.58
1178.44
1178.1
1177.58
1176.73
1178.51
1178.15
1177.56
1176.6
1178.5
1178.15
1177.61
1176.76
1178.18
1177.96
1177.47
1176.58
1178.07
1177.87
1177.45
1176.67
1178.19
1177.96
1177.48
1176.6
1178.08
1177.87
1177.45
1176.68
1178.21
1177.97
1177.5
1176.64
1178.1
1177.88
1177.46
1176.7
1178.21
1177.96
1177.51
1176.7
1178.13
1177.89
1177.47
1176.73
1178.2
1177.93
1177.51
1176.77
1177.91
1177.73
1177.35
1176.79
1177.72
1177.56
1177.17
1176.65
1177.93
1177.74
1177.35
1176.8
1177.74
1177.57
1177.17
1176.66
1177.97
1177.76
1177.37
1176.81
1177.78
1177.59
1177.18
1176.66
1178.03
1177.79
1177.39
1176.83
1177.84
1177.61
1177.2
1176.68
1178.1
1177.83
1177.42
1176.86
1177.9
1177.65
1177.21
1176.69
1178.24
1177.91
1177.46
1176.87
1178.06
1177.74
1177.27
1176.73
1178.17
1177.87
1177.44
1176.86
1177.98
1177.69
1177.24
1176.71
1178.3
1177.95
1177.47
1176.88
1178.13
1177.78
1177.3
1176.75
1178.36
1177.99
1177.5
1176.9
1178.2
1177.82
1177.33
1176.77
1175.04
1173.88
1172.89
1172.08
1171.46
1174.97
1173.82
1172.83
1172.03
1171.4
1175.05
1173.89
1172.89
1172.08
1171.46
1174.98
1173.83
1172.84
1172.03
1171.41
1175.06
1173.89
1172.9
1172.09
1171.46
1175.03
1173.88
1172.88
1172.07
1171.45
1175.01
1173.85
1172.85
1172.04
1171.42
1175.02
1173.86
1172.86
1172.05
1171.42
1175.07
1173.9
1172.9
1172.09
1171.47
1175.02
1173.82
1172.81
1172
1171.38
1175.06
1173.88
1172.88
1172.07
1171.45
1175
1173.8
1172.8
1171.98
1171.36
1175.07
1173.9
1172.9
1172.09
1171.46
1175.01
1173.81
1172.8
1171.99
1171.37
1175.09
1173.91
1172.91
1172.09
1171.47
1175.02
1173.81
1172.8
1171.99
1171.36
1175.03
1173.86
1172.86
1172.05
1171.43
1174.95
1173.76
1172.76
1171.95
1171.33
1175.03
1173.85
1172.86
1172.05
1171.43
1174.95
1173.76
1172.76
1171.95
1171.33
1175.03
1173.84
1172.85
1172.04
1171.41
1174.95
1173.75
1172.75
1171.94
1171.32
1175.01
1173.81
1172.81
1172
1171.38
1174.94
1173.73
1172.73
1171.92
1171.3
1174.96
1173.76
1172.76
1171.94
1171.32
1171.32
1171.15
1171.4
1171.23
1171.54
1171.35
1171.71
1171.49
1171.89
1171.63
1172.16
1171.86
1172.02
1171.73
1172.3
1172.01
1172.45
1172.18
1169.46
1167.4
1165.62
1164.19
1163.14
1169.49
1167.41
1165.61
1164.17
1163.1
1169.5
1167.42
1165.63
1164.2
1163.15
1169.52
1167.42
1165.62
1164.17
1163.11
1169.57
1167.46
1165.66
1164.21
1163.16
1169.59
1167.46
1165.65
1164.19
1163.12
1169.66
1167.51
1165.7
1164.24
1163.19
1169.67
1167.51
1165.68
1164.21
1163.14
1169.77
1167.58
1165.74
1164.28
1163.22
1169.76
1167.57
1165.72
1164.24
1163.17
1170
1167.75
1165.87
1164.38
1163.31
1169.97
1167.72
1165.84
1164.34
1163.26
1169.88
1167.66
1165.8
1164.33
1163.26
1169.86