/*--------------------------------*- C++ -*----------------------------------*\
  =========                 |
  \\      /  F ield         | OpenFOAM: The Open Source CFD Toolbox
   \\    /   O peration     | Website:  https://openfoam.org
    \\  /    A nd           | Version:  13
     \\/     M anipulation  |
\*---------------------------------------------------------------------------*/
FoamFile
{
    format      ascii;
    class       volScalarField;
    location    "149.831886";
    object      T;
}
// * * * * * * * * * * * * * * * * * * * * * * * * * * * * * * * * * * * * * //

dimensions      [0 0 0 1 0 0 0];

internalField   nonuniform List<scalar> 
5712
(
1057.67
1057.46
1057.13
1056.81
1056.32
1056
1055.21
1054.95
1055.44
1055.14
1056.31
1056.01
1056.95
1056.67
1057.44
1057.22
1056.06
1055.65
1055.52
1054.95
1054.71
1054.18
1054.21
1053.54
1058.37
1059.52
1058.15
1059.23
1057.86
1058.96
1057.52
1058.56
1056.69
1057.31
1056.11
1056.9
1058.27
1057.61
1054.85
1053.86
1054.3
1053.56
1053.61
1052.77
1052.96
1052.32
1056.02
1054.98
1055.42
1054.64
1056.95
1055.95
1060.85
1061.64
1060.3
1061.12
1060.28
1061.28
1059.63
1060.55
1059.46
1060.81
1058.45
1059.71
1057.68
1058.92
1056.79
1058.05
1055.74
1055.56
1054.88
1054.79
1053.95
1053.71
1053.26
1053.02
1056.45
1056.68
1057.46
1057.5
1054.15
1054.15
1053.49
1053.63
1052.64
1052.45
1052.05
1051.95
1055.63
1056
1054.89
1055.46
1058
1059.51
1058.56
1060.26
1059.08
1060.63
1059.41
1061.17
1057.1
1058.57
1057.86
1059.53
1056.3
1057.76
1057.31
1058.95
1062.73
1064.46
1063.01
1064.73
1062.2
1063.82
1062.73
1064.36
1061.32
1062.56
1062.24
1063.59
1056.96
1054.84
1058.89
1060.34
1061.92
1055.15
1057.39
1059.69
1061.24
1062.94
1054.58
1056.58
1058.52
1060.35
1062.16
1066.05
1066.84
1066.92
1067.62
1065.25
1066.15
1066.37
1067.13
1063.84
1064.86
1065.43
1066.34
1055.65
1056.49
1058.11
1059.24
1060.37
1061.54
1062.17
1063.32
1064.55
1065.7
1054.95
1055.63
1057.19
1058.37
1059.3
1060.63
1061.39
1062.83
1064.03
1065.54
1056.14
1057.45
1055.19
1056.36
1053.94
1054.33
1053.09
1053.31
1057.42
1058.97
1058.35
1059.99
1054.39
1055.56
1053.87
1054.99
1052.4
1052.62
1051.91
1052.08
1056.59
1058.16
1056.06
1057.61
1059.97
1061.84
1063.12
1065.37
1060.71
1062.67
1063.62
1065.83
1059.29
1061.09
1062.65
1064.86
1058.64
1060.47
1061.97
1064.07
1067.1
1067.47
1068.13
1067.25
1067.42
1068.03
1066.58
1067.03
1067.74
1066.86
1067.06
1067.72
1065.52
1066.1
1066.9
1066.27
1066.56
1067.3
1057.52
1058.69
1059.95
1060.45
1061.48
1062.59
1062.66
1063.55
1064.53
1064.24
1064.99
1065.92
1065.8
1066.2
1067.07
1056.59
1057.91
1059.33
1059.94
1061.32
1062.72
1062.22
1063.44
1064.7
1064.07
1064.99
1066.11
1065.78
1066.3
1067.3
1052.3
1051.87
1051.93
1051.38
1053.39
1052.86
1052.95
1052.3
1052.11
1051.26
1052.01
1051.22
1051.86
1051.1
1051.67
1050.96
1051.07
1051.43
1050.83
1051.26
1050.93
1050.63
1050.95
1050.46
1051.79
1051.24
1050.82
1050.35
1050.48
1050.04
1050.45
1049.99
1050.4
1049.65
1050.55
1049.84
1050.28
1049.51
1050.32
1049.61
1050.17
1049.33
1049.96
1049.2
1049.81
1049.14
1049.41
1048.88
1051.31
1050.94
1050.83
1050.41
1052.45
1052.13
1051.88
1051.53
1050.09
1049.6
1050.52
1050.07
1050.35
1049.95
1049.88
1049.55
1051.34
1051.02
1050.82
1050.57
1049.67
1049.2
1049.24
1048.84
1049.48
1048.83
1049.07
1048.7
1049.83
1049.12
1049.48
1049.04
1049.14
1048.57
1048.72
1048.41
1048.76
1048.29
1048.41
1048.15
1050.45
1050.83
1049.73
1050.13
1050.43
1050.83
1049.67
1050.08
1050.4
1050.76
1049.58
1049.95
1051.68
1053.03
1050.84
1050.17
1049.47
1053.32
1051.98
1051.2
1050.54
1049.79
1052.77
1051.45
1050.51
1049.88
1049.38
1051.48
1052.38
1050.79
1051.66
1051.43
1052.29
1050.68
1051.52
1051.28
1052.1
1050.47
1051.25
1053.69
1054.39
1052.27
1052.98
1051.47
1052.2
1050.85
1051.59
1050.14
1050.88
1053
1053.42
1051.65
1052.07
1050.74
1051.23
1050.15
1050.76
1049.72
1050.46
1050.87
1051.02
1050.32
1050.33
1052.1
1052.21
1051.45
1051.37
1049.61
1049.8
1050.08
1050.39
1049.91
1049.8
1049.51
1049.36
1050.94
1050.76
1050.49
1050.27
1049.23
1049.33
1048.88
1048.94
1049.18
1049.57
1049
1049.6
1049.6
1050.1
1049.33
1050.01
1048.83
1049.13
1048.71
1049.24
1048.54
1048.8
1048.45
1048.92
1053.61
1054.82
1055.97
1053.17
1054.54
1055.69
1053.44
1054.67
1055.84
1052.96
1054.34
1055.55
1053.18
1054.39
1055.58
1052.63
1054.08
1055.36
1055.33
1056.5
1057.77
1053.94
1055.16
1056.46
1053.17
1054.44
1055.76
1052.63
1053.9
1055.17
1052.26
1053.79
1055.19
1054.17
1055.44
1056.88
1052.86
1054.16
1055.61
1052.13
1053.51
1055
1051.82
1053.26
1054.77
1051.91
1053.51
1055.05
1049.36
1049.91
1051.32
1053.87
1049.59
1050.18
1051.63
1054.21
1049.26
1049.83
1051.24
1053.83
1049.41
1050.04
1051.5
1054.09
1049.12
1049.73
1051.09
1053.59
1049.07
1049.75
1051.19
1053.75
1049.11
1049.87
1051.41
1054.03
1048.97
1049.81
1051.41
1054.05
1048.81
1049.54
1050.95
1053.49
1048.86
1049.63
1050.93
1053.21
1049.03
1049.69
1050.96
1053.32
1049.1
1049.8
1051.01
1053.16
1048.64
1049.43
1050.95
1053.58
1048.65
1049.49
1050.86
1053.2
1048.46
1049.32
1050.9
1053.51
1048.46
1049.36
1050.77
1053.1
1049.4
1049.89
1051.18
1053.58
1049.72
1050.15
1051.24
1053.35
1049.37
1049.88
1051.15
1053.54
1049.71
1050.15
1051.24
1053.33
1049.33
1049.87
1051.1
1053.42
1049.64
1050.13
1051.22
1053.28
1049.32
1049.9
1051.07
1053.26
1049.57
1050.11
1051.19
1053.2
1049.35
1049.98
1051.09
1053.1
1050.22
1050.58
1051.57
1053.08
1050.79
1051.11
1052.12
1053.53
1050.16
1050.55
1051.55
1053.05
1050.72
1051.07
1052.1
1053.52
1050.05
1050.49
1051.51
1053.03
1050.6
1051.02
1052.07
1053.5
1049.88
1050.4
1051.44
1052.97
1050.45
1050.94
1052.02
1053.46
1049.67
1050.28
1051.36
1052.9
1050.27
1050.85
1051.97
1053.43
1049.26
1050.05
1051.25
1052.85
1049.8
1050.59
1051.81
1053.32
1049.46
1050.17
1051.31
1052.88
1050.03
1050.72
1051.89
1053.37
1049.08
1049.95
1051.2
1052.83
1049.59
1050.46
1051.73
1053.26
1048.91
1049.84
1051.13
1052.77
1049.4
1050.34
1051.65
1053.2
1057.74
1060.86
1063.51
1065.66
1067.33
1057.94
1061.02
1063.66
1065.81
1067.48
1057.72
1060.84
1063.5
1065.66
1067.32
1057.91
1061
1063.64
1065.8
1067.46
1057.68
1060.83
1063.49
1065.65
1067.32
1057.76
1060.87
1063.53
1065.69
1067.36
1057.84
1060.96
1063.61
1065.78
1067.44
1057.8
1060.92
1063.59
1065.76
1067.43
1057.65
1060.81
1063.48
1065.64
1067.31
1057.81
1061.04
1063.72
1065.88
1067.55
1057.69
1060.87
1063.53
1065.7
1067.36
1057.86
1061.1
1063.77
1065.93
1067.59
1057.65
1060.81
1063.48
1065.65
1067.32
1057.83
1061.07
1063.75
1065.91
1067.58
1057.6
1060.78
1063.46
1065.63
1067.3
1057.82
1061.07
1063.76
1065.93
1067.6
1057.77
1060.93
1063.59
1065.74
1067.41
1058
1061.21
1063.87
1066.02
1067.68
1057.76
1060.94
1063.59
1065.75
1067.42
1057.99
1061.21
1063.87
1066.02
1067.69
1057.77
1060.96
1063.62
1065.78
1067.45
1058
1061.22
1063.89
1066.04
1067.71
1057.84
1061.06
1063.73
1065.89
1067.56
1058.04
1061.27
1063.94
1066.1
1067.76
1057.98
1061.21
1063.88
1066.04
1067.7
1070.56
1071.06
1070.34
1070.85
1069.93
1070.5
1069.41
1070.07
1068.9
1069.66
1068.08
1068.97
1068.5
1069.36
1067.67
1068.52
1067.25
1068.02
1075.97
1081.88
1086.85
1090.72
1093.4
1075.89
1081.84
1086.86
1090.76
1093.48
1075.87
1081.83
1086.81
1090.7
1093.38
1075.8
1081.8
1086.83
1090.75
1093.47
1075.67
1081.72
1086.74
1090.65
1093.33
1075.61
1081.69
1086.76
1090.7
1093.42
1075.4
1081.56
1086.64
1090.57
1093.27
1075.36
1081.55
1086.66
1090.63
1093.36
1075.08
1081.35
1086.5
1090.46
1093.18
1075.09
1081.38
1086.54
1090.54
1093.29
1074.4
1080.85
1086.12
1090.17
1092.92
1074.47
1080.93
1086.21
1090.28
1093.05
1074.74
1081.11
1086.32
1090.33
1093.06
1074.8
1081.17
1086.4
1090.43
1093.18
1074.06
1080.59
1085.92
1090
1092.77
1074.1
1080.65
1085.99
1090.1
1092.88
1073.71
1080.32
1085.71
1089.83
1092.62
1073.7
1080.34
1085.75
1089.9
1092.71
1051.03
1051.79
1052.48
1051.6
1052.81
1052.68
1052.64
1052.47
1052.89
1052.66
1053.92
1053.65
1054.48
1054.17
1053.7
1053.45
1053.4
1053.23
1053.35
1053.21
1051.65
1051.47
1053.9
1054.86
1055.15
1055.25
1054.37
1053.84
1054.93
1053.68
1055.89
1057.31
1053.96
1054.34
1055.45
1054.27
1054.75
1054.85
1052.94
1052.89
1053.52
1053.31
1053.02
1052.8
1053.08
1053.43
1054.66
1054.44
1053.97
1053.74
1052.03
1051.76
1052.26
1052.05
1052.41
1052.48
1053.16
1053.99
1053.13
1050.23
1049.51
1049.22
1049.27
1049.69
1050.41
1049.81
1049.56
1049.68
1050.21
1053.18
1052.85
1052.82
1053.11
1053.74
1054.17
1053.86
1053.86
1054.18
1054.81
1054.45
1054.14
1054.12
1054.43
1055.05
1054.56
1054.26
1054.26
1054.57
1055.2
1053.66
1053.34
1053.32
1053.61
1054.24
1052.29
1051.36
1050.88
1050.79
1051.09
1053.29
1052.28
1051.77
1051.68
1052.03
1052.57
1051.87
1051.51
1051.54
1052.03
1054.36
1053.4
1052.93
1052.88
1053.31
1055.83
1054.84
1054.36
1054.32
1054.74
1053.08
1052.58
1052.38
1052.54
1053.1
1053.33
1052.69
1052.38
1052.46
1052.98
1054.47
1053.85
1053.57
1053.66
1054.18
1053.45
1053
1052.86
1053.06
1053.64
1053.88
1053.38
1053.19
1053.36
1053.92
1054.05
1053.62
1053.49
1053.7
1054.28
1051.52
1050.73
1050.34
1050.31
1050.67
1051.91
1051.32
1051.05
1051.16
1051.68
1052.68
1052.22
1052.07
1052.26
1052.84
1052.51
1052.09
1051.98
1052.2
1052.8
1052.16
1051.68
1051.5
1051.68
1052.25
1051.99
1051.55
1051.42
1051.64
1052.23
1052.32
1051.95
1051.87
1052.13
1052.75
1052.68
1052.3
1052.24
1052.5
1053.11
1053.92
1053.55
1053.49
1053.75
1054.36
1053.71
1053.37
1053.33
1053.61
1054.23
1053.18
1052.78
1052.67
1052.91
1053.5
1052.98
1052.6
1052.53
1052.78
1053.39
1050.65
1049.91
1049.59
1049.62
1050.01
1050.77
1050.2
1049.96
1050.09
1050.64
1051.12
1050.46
1050.15
1050.2
1050.65
1051.16
1050.66
1050.48
1050.66
1051.22
1051.57
1051.12
1050.97
1051.17
1051.75
1051.52
1050.95
1050.7
1050.82
1051.35
1052.39
1052.01
1051.93
1052.18
1052.79
1053.26
1052.92
1052.88
1053.16
1053.78
1052.35
1051.94
1051.84
1052.07
1052.67
1051.47
1051.9
1051.5
1051.99
1050.44
1050.95
1050.42
1050.87
1051.54
1051.59
1052
1051.91
1050.45
1050.48
1050.92
1050.78
1052.55
1053.62
1052.95
1053.97
1052.56
1053.53
1053.02
1053.97
1053.04
1052.63
1052.81
1052.54
1053.38
1053.79
1052.58
1053.06
1052.35
1052.89
1051.53
1052.04
1051.22
1051.72
1053.59
1054.11
1053.27
1053.87
1054.37
1055
1054.61
1055.46
1054.91
1055.73
1054.54
1055.55
1054.93
1055.83
1054.36
1055.74
1054.62
1055.85
1055.16
1056.41
1055.88
1057.16
1051.93
1052.21
1052.15
1052.47
1050.58
1050.67
1050.81
1050.89
1053.44
1054.23
1053.24
1053.96
1052.5
1052.78
1052.96
1053.17
1051.15
1051.18
1051.57
1051.53
1053.8
1054.55
1054.29
1054.97
1054.78
1056.31
1056.06
1057.78
1054.65
1056.29
1055.83
1057.64
1055.13
1056.59
1056.37
1058.05
1055.65
1057.09
1056.81
1058.46
1054.67
1055.17
1055.63
1056.41
1054.59
1055
1055.77
1056.52
1054.45
1054.67
1056.02
1056.64
1051.88
1050.48
1053.25
1054.73
1056.61
1050.44
1051.76
1053.13
1054.69
1056.93
1050.56
1052.06
1053.79
1055.69
1057.66
1055.98
1056.36
1058.48
1059.22
1055.6
1055.98
1058.33
1059.07
1055.04
1055.35
1058.15
1058.9
1050.47
1050.68
1051.89
1052.13
1053.37
1053.62
1055.16
1055.48
1058.39
1059.18
1050.57
1050.78
1052.22
1052.72
1054.11
1054.74
1056.3
1057.05
1059.25
1060.21
1052.61
1053.48
1052.84
1053.73
1050.73
1050.82
1050.93
1050.97
1054.97
1056.24
1054.69
1055.89
1053.04
1054.06
1053.43
1054.51
1051.16
1051.26
1051.5
1051.64
1055.18
1056.59
1055.6
1057.1
1057.52
1059.15
1060.76
1062.82
1057.09
1058.67
1060.18
1062.1
1057.85
1059.53
1061.26
1063.38
1058.16
1059.95
1061.53
1063.61
1056.5
1056.83
1058.75
1058.8
1056.14
1056.5
1058.66
1058.68
1055.6
1056.12
1058.56
1058.62
1051.1
1051.85
1052.59
1053.3
1054.02
1054.63
1055.81
1056.38
1058.74
1058.76
1051.21
1052.02
1053.41
1054.15
1055.35
1055.91
1057.31
1057.57
1059.33
1059.2
1048.75
1048.71
1049.2
1049.01
1049.5
1049.47
1049.98
1049.78
1048.22
1047.85
1048.65
1048.27
1048.23
1047.89
1048.7
1048.33
1048.62
1048.22
1048.56
1048.26
1047.97
1048.34
1049.43
1049.93
1050.19
1050.68
1049.17
1049.74
1048.99
1049.5
1048.88
1049.4
1047.64
1047.51
1048.04
1047.9
1047.64
1047.48
1048.06
1047.87
1047.66
1047.44
1047.98
1047.71
1048.46
1048.14
1048.92
1048.51
1048.58
1048.56
1048.79
1048.71
1049.44
1049.43
1049.67
1049.62
1048.21
1048.1
1048.02
1047.98
1049.1
1048.93
1049.47
1049.21
1049.99
1049.87
1050.38
1050.19
1048.51
1048.29
1048.85
1048.53
1047.81
1047.55
1047.76
1047.63
1047.64
1047.44
1047.66
1047.57
1048.08
1047.76
1047.92
1047.76
1048.41
1048.02
1048.14
1047.93
1047.46
1047.53
1047.36
1047.48
1047.49
1047.57
1047.37
1047.49
1047.56
1047.63
1047.39
1047.51
1048.51
1049.35
1047.96
1047.6
1047.45
1049.36
1048.55
1048.01
1047.66
1047.53
1049.34
1048.5
1047.94
1047.64
1047.57
1047.82
1048.32
1047.82
1048.36
1047.81
1048.28
1047.8
1048.31
1047.81
1048.23
1047.76
1048.23
1049.37
1049.57
1048.56
1048.81
1048.07
1048.38
1047.77
1048.13
1047.73
1048.16
1049.29
1049.38
1048.47
1048.59
1047.96
1048.18
1047.72
1048.05
1047.74
1048.17
1048.45
1048.43
1048.62
1048.51
1049.31
1049.21
1049.52
1049.31
1048.1
1048.16
1047.96
1048.09
1048.89
1048.72
1049.17
1049.01
1049.81
1049.55
1050.12
1049.87
1048.33
1048.35
1048.58
1048.62
1047.85
1048.11
1047.9
1048.33
1047.75
1048.06
1047.8
1048.26
1048.03
1048.26
1048.05
1048.48
1048.26
1048.5
1048.24
1048.67
1048.93
1049.51
1049.15
1049.83
1048.86
1049.48
1049.09
1049.8
1048.78
1049.47
1048.99
1049.83
1049.99
1050.75
1049.27
1050.04
1048.87
1049.65
1048.68
1049.48
1048.92
1049.91
1049.73
1050.6
1049
1049.91
1048.69
1049.64
1048.68
1049.67
1049.02
1050.13
1047.89
1048.93
1050.65
1053.43
1048.24
1049.28
1051.02
1053.8
1047.86
1048.9
1050.62
1053.41
1048.2
1049.23
1050.95
1053.72
1047.84
1048.87
1050.51
1053.21
1048.05
1049.07
1050.72
1053.44
1048.43
1049.41
1051.1
1053.82
1048.72
1049.64
1051.3
1053.97
1047.94
1048.94
1050.54
1053.2
1048.11
1049.13
1050.57
1052.95
1047.88
1048.91
1050.43
1052.96
1048.08
1049.11
1050.53
1052.83
1048.08
1049.05
1050.69
1053.39
1048.19
1049.17
1050.63
1053.02
1048.26
1049.19
1050.8
1053.45
1048.31
1049.25
1050.69
1053.04
1047.77
1048.81
1050.44
1053.09
1047.93
1048.97
1050.45
1052.8
1047.79
1048.83
1050.44
1053.07
1047.97
1049.01
1050.47
1052.8
1047.85
1048.88
1050.43
1052.98
1048.01
1049.05
1050.5
1052.79
1047.95
1048.99
1050.45
1052.85
1048.07
1049.11
1050.52
1052.75
1048.1
1049.15
1050.52
1052.71
1048.31
1049.35
1050.74
1052.45
1048.81
1049.84
1051.26
1052.86
1048.31
1049.35
1050.74
1052.44
1048.81
1049.85
1051.26
1052.87
1048.32
1049.36
1050.75
1052.46
1048.82
1049.86
1051.28
1052.88
1048.33
1049.38
1050.75
1052.46
1048.83
1049.88
1051.3
1052.89
1048.35
1049.41
1050.76
1052.45
1048.85
1049.92
1051.33
1052.92
1048.5
1049.54
1050.89
1052.56
1048.95
1050.02
1051.41
1052.99
1048.41
1049.47
1050.82
1052.5
1048.88
1049.95
1051.36
1052.94
1048.62
1049.64
1050.98
1052.64
1049.08
1050.11
1051.49
1053.06
1048.76
1049.73
1051.05
1052.71
1049.23
1050.22
1051.57
1053.13
1057.48
1060.7
1063.4
1065.6
1067.28
1057.69
1060.86
1063.56
1065.75
1067.43
1057.48
1060.7
1063.41
1065.6
1067.28
1057.69
1060.86
1063.56
1065.74
1067.42
1057.47
1060.7
1063.41
1065.59
1067.27
1057.58
1060.76
1063.46
1065.64
1067.32
1057.72
1060.88
1063.56
1065.74
1067.42
1057.75
1060.89
1063.57
1065.74
1067.42
1057.49
1060.71
1063.41
1065.6
1067.28
1057.67
1060.95
1063.66
1065.84
1067.52
1057.49
1060.75
1063.46
1065.65
1067.33
1057.69
1060.99
1063.7
1065.89
1067.56
1057.54
1060.74
1063.44
1065.62
1067.3
1057.73
1061.01
1063.71
1065.89
1067.56
1057.56
1060.76
1063.44
1065.62
1067.29
1057.79
1061.05
1063.74
1065.92
1067.59
1057.49
1060.76
1063.48
1065.67
1067.35
1057.72
1061.04
1063.76
1065.95
1067.63
1057.5
1060.78
1063.5
1065.69
1067.37
1057.72
1061.05
1063.77
1065.96
1067.63
1057.53
1060.82
1063.54
1065.73
1067.4
1057.75
1061.08
1063.8
1065.98
1067.66
1057.63
1060.94
1063.65
1065.84
1067.52
1057.82
1061.14
1063.86
1066.04
1067.72
1057.78
1061.1
1063.81
1065.99
1067.67
1063.75
1064.33
1063.83
1064.42
1064.01
1064.62
1064.3
1064.9
1064.77
1065.28
1065.96
1066.63
1065.43
1066.01
1066.42
1067.15
1066.84
1067.58
1071.05
1078.39
1084.27
1088.69
1091.63
1070.89
1078.31
1084.26
1088.71
1091.71
1071.12
1078.44
1084.3
1088.72
1091.65
1070.98
1078.38
1084.3
1088.76
1091.74
1071.27
1078.54
1084.37
1088.77
1091.7
1071.12
1078.48
1084.37
1088.81
1091.78
1071.5
1078.7
1084.49
1088.86
1091.77
1071.34
1078.62
1084.47
1088.89
1091.85
1071.82
1078.92
1084.64
1088.98
1091.88
1071.61
1078.8
1084.6
1088.99
1091.93
1072.61
1079.46
1085.04
1089.29
1092.15
1072.47
1079.38
1085.01
1089.31
1092.2
1072.21
1079.17
1084.83
1089.13
1092.01
1072
1079.05
1084.78
1089.13
1092.05
1072.98
1079.75
1085.26
1089.47
1092.3
1072.91
1079.71
1085.26
1089.5
1092.36
1073.35
1080.04
1085.49
1089.65
1092.46
1073.31
1080.04
1085.51
1089.7
1092.54
1050.39
1051.11
1050.57
1049.81
1048.76
1049.2
1048.75
1049.26
1049.51
1050.03
1049.51
1049.96
1058.42
1058.28
1057.93
1057.38
1056.64
1055.74
1058.48
1058.34
1058.01
1057.49
1056.81
1056.02
1058.77
1059.29
1058.61
1059.11
1058.22
1058.67
1057.6
1057.95
1056.76
1057.03
1055.79
1056.08
1054.79
1053.88
1053.09
1052.45
1051.96
1051.62
1055.17
1054.34
1053.6
1052.98
1052.5
1052.16
1057.78
1057.53
1057.57
1057.92
1058.56
1057.64
1057.38
1057.43
1057.77
1058.41
1057.28
1057.03
1057.07
1057.41
1058.05
1056.73
1056.47
1056.5
1056.84
1057.48
1055.98
1055.71
1055.73
1056.07
1056.71
1055.07
1054.79
1054.8
1055.13
1055.77
1057.83
1057.58
1057.63
1057.97
1058.61
1057.7
1057.44
1057.48
1057.83
1058.47
1057.36
1057.1
1057.14
1057.48
1058.12
1056.84
1056.58
1056.61
1056.95
1057.59
1056.15
1055.88
1055.91
1056.24
1056.88
1055.34
1055.06
1055.07
1055.4
1056.03
1058.13
1057.88
1057.93
1058.27
1058.91
1058.66
1058.41
1058.45
1058.79
1059.43
1057.97
1057.72
1057.76
1058.1
1058.74
1058.47
1058.22
1058.26
1058.6
1059.24
1057.58
1057.32
1057.36
1057.7
1058.34
1058.03
1057.77
1057.81
1058.15
1058.79
1056.95
1056.68
1056.72
1057.06
1057.7
1057.3
1057.04
1057.07
1057.41
1058.05
1056.1
1055.83
1055.86
1056.19
1056.83
1056.37
1056.1
1056.12
1056.46
1057.09
1055.12
1054.83
1054.85
1055.17
1055.81
1055.41
1055.12
1055.13
1055.46
1056.09
1054.09
1053.79
1053.79
1054.1
1054.73
1053.16
1052.83
1052.8
1053.09
1053.72
1052.34
1051.97
1051.9
1052.17
1052.79
1051.64
1051.22
1051.11
1051.34
1051.94
1051.1
1050.63
1050.48
1050.68
1051.26
1050.72
1050.22
1050.05
1050.23
1050.8
1054.48
1054.17
1054.17
1054.48
1055.12
1053.63
1053.3
1053.28
1053.57
1054.2
1052.86
1052.5
1052.45
1052.73
1053.34
1052.21
1051.82
1051.73
1051.98
1052.59
1051.69
1051.27
1051.16
1051.4
1051.99
1051.34
1050.91
1050.78
1051.01
1051.6
1058.35
1058.08
1057.6
1056.92
1056.04
1055
1058.41
1058.14
1057.68
1057.04
1056.23
1055.32
1058.7
1059.22
1058.41
1058.9
1057.88
1058.31
1057.11
1057.44
1056.13
1056.37
1055
1055.23
1053.91
1052.91
1052.11
1051.57
1051.35
1051.39
1054.37
1053.49
1052.77
1052.27
1052.01
1051.99
1057.71
1057.46
1057.51
1057.85
1058.49
1057.44
1057.19
1057.23
1057.57
1058.22
1056.96
1056.7
1056.74
1057.09
1057.73
1056.27
1056.01
1056.05
1056.39
1057.03
1055.38
1055.11
1055.15
1055.49
1056.13
1054.33
1054.06
1054.08
1054.42
1055.06
1057.77
1057.52
1057.56
1057.9
1058.55
1057.5
1057.25
1057.29
1057.63
1058.28
1057.04
1056.78
1056.82
1057.16
1057.81
1056.38
1056.12
1056.16
1056.5
1057.15
1055.57
1055.3
1055.34
1055.67
1056.32
1054.65
1054.37
1054.39
1054.72
1055.37
1058.06
1057.81
1057.86
1058.2
1058.84
1058.59
1058.33
1058.38
1058.72
1059.36
1057.77
1057.51
1057.56
1057.9
1058.54
1058.26
1058.01
1058.05
1058.39
1059.03
1057.23
1056.98
1057.02
1057.36
1058.01
1057.67
1057.41
1057.46
1057.8
1058.44
1056.46
1056.2
1056.24
1056.58
1057.23
1056.79
1056.53
1056.57
1056.91
1057.56
1055.47
1055.21
1055.24
1055.58
1056.23
1055.71
1055.45
1055.48
1055.82
1056.46
1054.33
1054.05
1054.08
1054.41
1055.06
1054.56
1054.28
1054.31
1054.64
1055.29
1053.22
1052.93
1052.94
1053.27
1053.92
1052.2
1051.89
1051.88
1052.19
1052.83
1051.37
1051.02
1050.98
1051.27
1051.9
1050.79
1050.39
1050.31
1050.57
1051.18
1050.51
1050.06
1049.93
1050.15
1050.74
1050.5
1050.01
1049.85
1050.04
1050.62
1053.68
1053.39
1053.4
1053.72
1054.37
1052.79
1052.48
1052.47
1052.78
1053.42
1052.04
1051.7
1051.67
1051.96
1052.59
1051.51
1051.14
1051.07
1051.34
1051.96
1051.22
1050.81
1050.72
1050.96
1051.57
1051.17
1050.74
1050.63
1050.85
1051.45
1051.26
1051.17
1052.78
1053.91
1053.97
1054.23
1053.21
1050.61
1050.93
1050.78
1051.68
1051.62
1051.45
1052.19
1052.32
1052.75
1050.55
1050.67
1051.5
1051.58
1051.09
1051.23
1051.85
1052
1053.01
1053.02
1052.16
1052.16
1050.89
1050.92
1050.55
1050.88
1051.01
1050.66
1051.77
1052.67
1051.57
1049.87
1049.18
1048.91
1048.99
1049.42
1050.13
1049.54
1049.3
1049.43
1049.98
1052.08
1051.77
1051.77
1052.08
1052.73
1053.22
1052.94
1052.95
1053.28
1053.93
1053.28
1052.99
1053
1053.32
1053.96
1053.55
1053.27
1053.28
1053.61
1054.26
1052.51
1052.21
1052.22
1052.54
1053.18
1049.38
1048.76
1048.53
1048.64
1049.08
1049.74
1049.15
1048.94
1049.07
1049.55
1049.87
1049.37
1049.2
1049.39
1049.97
1050.61
1050.09
1049.92
1050.1
1050.65
1050.85
1050.46
1050.39
1050.65
1051.27
1050.61
1050.17
1050.05
1050.28
1050.87
1051.44
1051.08
1051.04
1051.32
1051.95
1051.56
1051.19
1051.13
1051.4
1052.02
1052.02
1051.67
1051.63
1051.92
1052.55
1049.34
1048.73
1048.5
1048.62
1049.07
1049.8
1049.34
1049.19
1049.4
1049.99
1050.73
1050.36
1050.29
1050.57
1051.19
1050.83
1050.47
1050.42
1050.71
1051.34
1050.3
1049.9
1049.81
1050.07
1050.68
1050.46
1050.08
1050.02
1050.28
1050.91
1051.12
1050.77
1050.74
1051.03
1051.66
1051.28
1050.95
1050.92
1051.22
1051.86
1052.29
1051.97
1051.96
1052.26
1052.9
1052.31
1052
1052
1052.31
1052.96
1051.43
1051.09
1051.05
1051.34
1051.98
1051.44
1051.11
1051.08
1051.38
1052.02
1049.58
1048.94
1048.69
1048.79
1049.24
1049.97
1049.44
1049.25
1049.41
1049.98
1049.51
1048.96
1048.75
1048.89
1049.4
1050.04
1049.59
1049.46
1049.67
1050.27
1050.21
1049.81
1049.72
1049.97
1050.58
1049.78
1049.3
1049.15
1049.35
1049.94
1051.04
1050.69
1050.66
1050.95
1051.58
1051.97
1051.65
1051.65
1051.96
1052.6
1050.82
1050.46
1050.42
1050.7
1051.33
1051.93
1051.32
1051.06
1051.15
1051.55
1052.33
1051.32
1051.37
1050.27
1050.25
1051.42
1051.52
1050.31
1050.36
1052.46
1053.64
1052.47
1053.53
1052.58
1052.52
1053.34
1051.29
1051.35
1050.23
1050.2
1051.41
1051.5
1050.28
1050.35
1052.52
1053.77
1052.53
1053.63
1052.63
1052.55
1053.43
1051.31
1051.37
1050.22
1050.18
1051.43
1051.53
1050.28
1050.36
1052.58
1054.1
1052.59
1053.91
1052.69
1052.6
1053.66
1051.53
1051.59
1050.42
1050.38
1051.66
1051.78
1050.48
1050.58
1052.88
1054.49
1052.88
1054.29
1052.97
1052.87
1053.99
1051.92
1051.98
1050.82
1050.78
1052.06
1052.2
1050.88
1050.98
1053.28
1054.79
1053.27
1054.63
1053.35
1053.28
1054.34
1052.63
1052.69
1051.55
1051.51
1052.75
1052.87
1051.61
1051.7
1053.92
1055.3
1053.89
1055.15
1053.96
1053.88
1054.86
1048.59
1048.59
1049.34
1049.33
1048.61
1048.62
1049.36
1049.39
1048.06
1047.66
1048.09
1047.72
1048.09
1048.17
1047.84
1048.54
1048.54
1049.29
1049.28
1048.58
1048.61
1049.32
1049.36
1047.98
1047.66
1048.03
1047.74
1048.07
1048.16
1047.87
1048.52
1048.53
1049.27
1049.25
1048.59
1048.64
1049.32
1049.38
1048.02
1047.82
1048.07
1047.89
1048.14
1048.24
1048.01
1048.71
1048.74
1049.47
1049.44
1048.81
1048.88
1049.53
1049.59
1048.27
1048.18
1048.33
1048.24
1048.43
1048.55
1048.36
1049.14
1049.17
1049.88
1049.85
1049.25
1049.35
1049.94
1050.01
1048.74
1048.71
1048.81
1048.76
1048.91
1049.05
1048.86
1049.9
1049.93
1050.63
1050.6
1050.02
1050.1
1050.69
1050.76
1049.51
1049.41
1049.58
1049.46
1049.67
1049.78
1049.56
1057.7
1057.51
1057.13
1056.82
1056.32
1056.01
1055.21
1054.95
1055.44
1055.14
1056.32
1056.01
1056.96
1056.67
1057.48
1057.27
1056.07
1055.65
1055.52
1054.95
1054.71
1054.18
1054.21
1053.54
1058.39
1059.54
1058.19
1059.26
1057.86
1058.97
1057.52
1058.57
1056.69
1057.31
1056.12
1056.9
1058.27
1057.61
1054.85
1053.86
1054.3
1053.56
1053.61
1052.78
1052.96
1052.32
1056.02
1054.99
1055.42
1054.64
1056.95
1055.95
1060.87
1061.66
1060.33
1061.15
1060.28
1061.28
1059.64
1060.56
1059.46
1060.81
1058.46
1059.71
1057.68
1058.92
1056.79
1058.05
1055.75
1055.56
1054.88
1054.79
1053.95
1053.71
1053.26
1053.03
1056.45
1056.68
1057.46
1057.5
1054.16
1054.16
1053.5
1053.63
1052.64
1052.45
1052.05
1051.95
1055.63
1056.01
1054.89
1055.46
1058
1059.51
1058.56
1060.26
1059.08
1060.63
1059.41
1061.17
1057.1
1058.57
1057.86
1059.53
1056.3
1057.76
1057.31
1058.95
1062.75
1064.48
1063.03
1064.74
1062.21
1063.82
1062.73
1064.37
1061.32
1062.56
1062.24
1063.59
1056.96
1054.84
1058.89
1060.34
1061.92
1055.15
1057.39
1059.69
1061.24
1062.95
1054.58
1056.58
1058.52
1060.35
1062.16
1066.08
1066.87
1066.93
1067.63
1065.25
1066.15
1066.37
1067.13
1063.84
1064.86
1065.44
1066.34
1055.65
1056.49
1058.11
1059.24
1060.37
1061.54
1062.17
1063.32
1064.55
1065.7
1054.96
1055.63
1057.2
1058.37
1059.3
1060.63
1061.39
1062.83
1064.03
1065.54
1056.14
1057.46
1055.19
1056.36
1053.94
1054.33
1053.09
1053.32
1057.43
1058.97
1058.35
1059.99
1054.39
1055.56
1053.87
1054.99
1052.4
1052.62
1051.91
1052.08
1056.59
1058.16
1056.06
1057.61
1059.97
1061.84
1063.12
1065.37
1060.71
1062.67
1063.62
1065.83
1059.29
1061.1
1062.65
1064.86
1058.64
1060.47
1061.97
1064.07
1067.12
1067.49
1068.15
1067.27
1067.43
1068.04
1066.58
1067.03
1067.74
1066.86
1067.06
1067.72
1065.52
1066.11
1066.9
1066.27
1066.56
1067.3
1057.52
1058.7
1059.95
1060.45
1061.48
1062.59
1062.66
1063.55
1064.53
1064.24
1064.99
1065.92
1065.8
1066.2
1067.07
1056.59
1057.91
1059.33
1059.94
1061.32
1062.72
1062.22
1063.44
1064.7
1064.07
1064.99
1066.11
1065.78
1066.3
1067.3
1052.3
1051.88
1051.93
1051.38
1053.39
1052.86
1052.96
1052.3
1052.13
1051.28
1052.03
1051.24
1051.86
1051.1
1051.67
1050.96
1051.07
1051.43
1050.83
1051.26
1050.93
1050.63
1050.95
1050.46
1051.79
1051.24
1050.82
1050.35
1050.48
1050.04
1050.45
1049.99
1050.41
1049.66
1050.56
1049.86
1050.28
1049.51
1050.32
1049.61
1050.17
1049.33
1049.96
1049.2
1049.81
1049.14
1049.41
1048.88
1051.32
1050.95
1050.83
1050.41
1052.45
1052.13
1051.88
1051.53
1050.09
1049.6
1050.52
1050.07
1050.35
1049.95
1049.88
1049.55
1051.34
1051.02
1050.82
1050.57
1049.67
1049.2
1049.24
1048.84
1049.48
1048.83
1049.08
1048.7
1049.83
1049.12
1049.48
1049.04
1049.14
1048.57
1048.72
1048.41
1048.76
1048.29
1048.41
1048.15
1050.45
1050.83
1049.73
1050.13
1050.43
1050.83
1049.67
1050.09
1050.4
1050.76
1049.58
1049.95
1051.68
1053.03
1050.84
1050.17
1049.47
1053.32
1051.98
1051.2
1050.54
1049.79
1052.77
1051.45
1050.51
1049.88
1049.38
1051.49
1052.39
1050.79
1051.67
1051.43
1052.29
1050.68
1051.52
1051.28
1052.1
1050.47
1051.25
1053.69
1054.39
1052.27
1052.98
1051.47
1052.2
1050.85
1051.59
1050.14
1050.88
1053
1053.42
1051.65
1052.07
1050.74
1051.23
1050.15
1050.76
1049.72
1050.46
1050.87
1051.02
1050.32
1050.33
1052.1
1052.21
1051.45
1051.37
1049.61
1049.8
1050.08
1050.39
1049.91
1049.8
1049.51
1049.37
1050.94
1050.76
1050.49
1050.27
1049.23
1049.33
1048.88
1048.94
1049.18
1049.57
1049
1049.6
1049.6
1050.1
1049.33
1050.01
1048.83
1049.13
1048.71
1049.24
1048.54
1048.8
1048.45
1048.92
1053.61
1054.83
1055.98
1053.17
1054.54
1055.7
1053.44
1054.67
1055.84
1052.96
1054.35
1055.55
1053.18
1054.39
1055.58
1052.63
1054.08
1055.36
1055.33
1056.5
1057.77
1053.95
1055.16
1056.46
1053.17
1054.44
1055.76
1052.63
1053.9
1055.17
1052.26
1053.79
1055.19
1054.17
1055.44
1056.88
1052.86
1054.16
1055.61
1052.13
1053.51
1055
1051.82
1053.27
1054.77
1051.91
1053.51
1055.05
1049.36
1049.92
1051.32
1053.88
1049.6
1050.19
1051.64
1054.22
1049.26
1049.83
1051.24
1053.83
1049.41
1050.04
1051.5
1054.09
1049.12
1049.73
1051.09
1053.59
1049.07
1049.75
1051.19
1053.75
1049.11
1049.87
1051.41
1054.03
1048.97
1049.81
1051.41
1054.05
1048.81
1049.54
1050.95
1053.49
1048.86
1049.63
1050.93
1053.21
1049.03
1049.69
1050.96
1053.32
1049.1
1049.8
1051.01
1053.16
1048.64
1049.43
1050.95
1053.58
1048.65
1049.49
1050.86
1053.2
1048.46
1049.32
1050.9
1053.51
1048.46
1049.36
1050.77
1053.1
1049.4
1049.9
1051.18
1053.59
1049.72
1050.15
1051.24
1053.35
1049.37
1049.88
1051.15
1053.54
1049.71
1050.15
1051.24
1053.33
1049.33
1049.87
1051.1
1053.42
1049.64
1050.13
1051.22
1053.28
1049.32
1049.9
1051.07
1053.26
1049.57
1050.11
1051.19
1053.2
1049.35
1049.98
1051.09
1053.1
1050.22
1050.58
1051.57
1053.08
1050.78
1051.1
1052.11
1053.53
1050.16
1050.55
1051.55
1053.05
1050.72
1051.07
1052.1
1053.52
1050.05
1050.49
1051.51
1053.03
1050.61
1051.02
1052.07
1053.5
1049.88
1050.4
1051.44
1052.97
1050.45
1050.94
1052.02
1053.46
1049.67
1050.28
1051.36
1052.9
1050.27
1050.85
1051.97
1053.43
1049.26
1050.05
1051.26
1052.85
1049.8
1050.59
1051.81
1053.32
1049.46
1050.17
1051.31
1052.88
1050.03
1050.72
1051.89
1053.37
1049.08
1049.95
1051.2
1052.83
1049.59
1050.46
1051.73
1053.26
1048.91
1049.84
1051.13
1052.77
1049.4
1050.34
1051.65
1053.2
1057.75
1060.86
1063.51
1065.66
1067.33
1057.95
1061.02
1063.66
1065.82
1067.48
1057.72
1060.84
1063.5
1065.66
1067.32
1057.9
1060.99
1063.64
1065.8
1067.46
1057.68
1060.83
1063.49
1065.65
1067.31
1057.76
1060.87
1063.53
1065.69
1067.36
1057.84
1060.96
1063.61
1065.78
1067.44
1057.8
1060.92
1063.59
1065.76
1067.43
1057.65
1060.81
1063.48
1065.64
1067.31
1057.81
1061.04
1063.72
1065.88
1067.55
1057.69
1060.87
1063.53
1065.7
1067.36
1057.86
1061.09
1063.77
1065.93
1067.59
1057.65
1060.81
1063.48
1065.65
1067.32
1057.83
1061.07
1063.75
1065.91
1067.58
1057.6
1060.78
1063.46
1065.63
1067.3
1057.82
1061.07
1063.76
1065.93
1067.6
1057.77
1060.93
1063.58
1065.74
1067.41
1058
1061.21
1063.86
1066.02
1067.68
1057.76
1060.94
1063.59
1065.75
1067.42
1058
1061.21
1063.87
1066.02
1067.69
1057.77
1060.96
1063.62
1065.78
1067.45
1058
1061.22
1063.89
1066.04
1067.71
1057.84
1061.06
1063.73
1065.89
1067.56
1058.04
1061.27
1063.94
1066.09
1067.76
1057.98
1061.21
1063.88
1066.04
1067.7
1070.58
1071.07
1070.34
1070.85
1069.93
1070.5
1069.42
1070.08
1068.9
1069.66
1068.08
1068.97
1068.5
1069.36
1067.67
1068.53
1067.25
1068.02
1075.98
1081.89
1086.85
1090.73
1093.4
1075.89
1081.84
1086.86
1090.76
1093.48
1075.87
1081.83
1086.81
1090.7
1093.38
1075.8
1081.8
1086.83
1090.76
1093.47
1075.67
1081.72
1086.74
1090.65
1093.33
1075.61
1081.69
1086.76
1090.7
1093.42
1075.4
1081.56
1086.64
1090.57
1093.27
1075.36
1081.55
1086.66
1090.63
1093.36
1075.08
1081.35
1086.5
1090.46
1093.18
1075.09
1081.38
1086.54
1090.54
1093.29
1074.4
1080.85
1086.13
1090.17
1092.92
1074.47
1080.93