/*--------------------------------*- C++ -*----------------------------------*\
  =========                 |
  \\      /  F ield         | OpenFOAM: The Open Source CFD Toolbox
   \\    /   O peration     | Website:  https://openfoam.org
    \\  /    A nd           | Version:  13
     \\/     M anipulation  |
\*---------------------------------------------------------------------------*/
FoamFile
{
    format      ascii;
    class       volScalarField;
    location    "74.831886";
    object      T;
}
// * * * * * * * * * * * * * * * * * * * * * * * * * * * * * * * * * * * * * //

dimensions      [0 0 0 1 0 0 0];

internalField   nonuniform List<scalar> 
5712
(
796.08
795.728
795.137
794.595
793.689
793.142
791.643
791.204
792.011
791.498
793.614
793.093
794.769
794.273
795.627
795.251
793.279
792.587
792.345
791.388
790.8
789.908
789.949
788.817
797.377
799.499
796.998
798.977
796.494
798.522
795.903
797.814
794.483
795.567
793.49
794.86
797.316
796.15
791.176
789.458
790.252
788.976
788.927
787.491
787.825
786.736
793.301
791.505
792.272
790.916
794.983
793.24
801.924
803.344
800.911
802.381
800.937
802.723
799.752
801.385
799.495
801.92
797.698
799.934
796.319
798.524
794.764
797.002
792.798
792.495
791.306
791.17
789.515
789.117
788.344
787.944
794.154
794.613
795.926
796.034
790.046
790.069
788.908
789.155
787.285
786.955
786.288
786.108
792.711
793.436
791.435
792.486
796.944
799.646
798.027
801.084
798.872
801.654
799.524
802.71
795.361
797.98
796.8
799.791
793.97
796.544
795.836
798.777
805.332
808.477
805.849
808.982
804.411
807.328
805.355
808.339
802.843
805.073
804.511
806.962
794.93
791.036
798.459
801.122
803.989
791.556
795.67
799.868
802.717
805.834
790.597
794.266
797.821
801.185
804.468
811.383
812.763
813.023
814.258
809.914
811.504
812.035
813.37
807.364
809.147
810.345
811.938
792.413
793.819
796.912
798.854
801.053
803.082
804.37
806.389
808.776
810.819
791.227
792.361
795.336
797.374
799.198
801.534
803.043
805.58
807.893
810.582
793.508
795.81
791.854
793.894
789.478
790.089
788.009
788.321
795.939
798.681
797.557
800.467
790.448
792.498
789.548
791.503
786.825
787.117
785.979
786.178
794.462
797.261
793.551
796.288
800.59
803.939
806.354
810.445
801.889
805.4
807.211
811.221
799.388
802.635
805.528
809.556
798.251
801.53
804.33
808.142
813.107
813.636
814.736
813.427
813.574
814.569
812.166
812.845
814.014
812.72
812.926
814.001
810.222
811.15
812.466
811.646
812.012
813.224
795.548
797.535
799.665
800.91
802.633
804.504
804.983
806.448
808.084
807.921
809.13
810.691
810.803
811.348
812.772
793.954
796.175
798.579
800.072
802.394
804.774
804.267
806.297
808.417
807.661
809.143
811
810.773
811.503
813.148
786.39
785.673
785.762
784.842
788.381
787.492
787.655
786.558
785.906
784.365
785.734
784.296
785.496
784.117
785.19
783.894
784.19
784.79
783.819
784.522
783.869
783.375
784.13
783.301
785.685
784.753
783.788
783.011
783.244
782.496
783.09
782.327
782.816
781.448
783.074
781.778
782.644
781.228
782.713
781.395
782.492
780.939
782.166
780.736
781.92
780.649
781.267
780.203
784.694
784.056
783.886
783.165
786.787
786.229
785.829
785.22
782.522
781.665
783.224
782.444
783.091
782.393
782.297
781.709
784.92
784.35
784.037
783.584
781.827
780.985
781.105
780.381
781.372
780.125
780.666
779.904
781.936
780.611
781.346
780.473
780.809
779.695
780.07
779.411
780.184
779.234
779.544
778.983
782.827
783.445
781.575
782.231
782.827
783.482
781.49
782.173
782.825
783.417
781.354
781.969
785.263
787.734
783.708
782.491
781.183
788.208
785.76
784.295
783.1
781.725
787.289
784.887
783.166
782.002
781.038
784.542
786.066
783.347
784.829
784.473
785.924
783.176
784.6
784.278
785.647
782.845
784.174
788.822
789.978
786.23
787.408
784.74
785.954
783.609
784.849
782.32
783.574
787.66
788.321
785.199
785.867
783.53
784.34
782.45
783.454
781.611
782.872
783.882
784.078
782.968
782.898
786.124
786.245
785.019
784.796
781.641
781.908
782.425
782.913
782.267
781.989
781.588
781.239
784.16
783.737
783.394
782.885
781.013
781.098
780.407
780.429
780.808
781.429
780.396
781.406
781.527
782.338
780.958
782.111
780.222
780.679
779.912
780.79
779.73
780.119
779.481
780.243
788.146
790.211
792.158
787.393
789.727
791.68
787.874
789.965
791.957
787.06
789.411
791.449
787.477
789.528
791.55
786.521
788.983
791.159
791.552
793.532
795.679
789.022
791.078
793.274
787.601
789.749
791.983
786.599
788.742
790.901
785.932
788.522
790.893
789.56
791.698
794.129
787.176
789.359
791.8
785.848
788.167
790.683
785.24
787.685
790.224
785.343
788.059
790.666
780.84
781.677
783.991
788.307
781.225
782.127
784.522
788.879
780.675
781.546
783.868
788.226
780.923
781.886
784.304
788.674
780.456
781.378
783.602
787.83
780.365
781.405
783.782
788.1
780.438
781.6
784.147
788.575
780.196
781.499
784.151
788.611
779.944
781.052
783.372
787.651
780.017
781.208
783.328
787.175
780.308
781.298
783.392
787.362
780.425
781.493
783.46
787.083
779.649
780.876
783.38
787.816
779.663
780.962
783.209
787.146
779.348
780.69
783.283
787.697
779.353
780.749
783.063
786.983
780.906
781.646
783.748
787.807
781.445
782.063
783.852
787.397
780.86
781.625
783.697
787.732
781.423
782.072
783.85
787.362
780.795
781.609
783.613
787.531
781.312
782.032
783.814
787.284
780.778
781.658
783.561
787.247
781.207
782.005
783.765
787.137
780.832
781.785
783.6
786.974
782.281
782.79
784.396
786.919
783.22
783.661
785.303
787.665
782.178
782.734
784.353
786.87
783.113
783.608
785.272
787.643
781.991
782.635
784.294
786.829
782.926
783.518
785.224
787.601
781.72
782.486
784.181
786.729
782.67
783.387
785.146
787.543
781.367
782.289
784.045
786.619
782.37
783.236
785.062
787.485
780.689
781.907
783.862
786.533
781.593
782.79
784.783
787.295
781.022
782.099
783.958
786.584
781.981
783.015
784.924
787.387
780.389
781.728
783.772
786.493
781.236
782.579
784.655
787.195
780.101
781.543
783.648
786.392
780.909
782.374
784.521
787.088
794.931
800.293
804.878
808.624
811.523
795.265
800.568
805.141
808.885
811.782
794.893
800.273
804.865
808.615
811.515
795.206
800.53
805.112
808.859
811.758
794.82
800.241
804.844
808.598
811.5
794.966
800.322
804.917
808.671
811.573
795.1
800.463
805.064
808.822
811.725
795.023
800.406
805.021
808.787
811.694
794.773
800.214
804.828
808.587
811.491
795.047
800.611
805.242
809.002
811.905
794.834
800.31
804.925
808.682
811.584
795.133
800.702
805.329
809.086
811.987
794.77
800.215
804.836
808.599
811.505
795.079
800.655
805.292
809.056
811.96
794.689
800.161
804.795
808.567
811.476
795.06
800.662
805.311
809.081
811.987
794.969
800.419
805.017
808.764
811.662
795.365
800.896
805.5
809.244
812.138
794.961
800.428
805.031
808.78
811.679
795.355
800.897
805.504
809.25
812.145
794.969
800.469
805.081
808.833
811.733
795.36
800.92
805.533
809.281
812.177
795.087
800.642
805.264
809.018
811.918
795.427
801.003
805.622
809.372
812.269
795.324
800.899
805.523
809.277
812.175
819.829
820.742
819.431
820.362
818.705
819.738
817.788
818.993
816.885
818.274
815.48
817.094
816.202
817.777
814.761
816.32
814.006
815.427
830.013
841.22
850.689
858.092
863.174
829.844
841.13
850.706
858.159
863.325
829.835
841.126
850.629
858.048
863.134
829.685
841.064
850.648
858.144
863.297
829.476
840.924
850.495
857.947
863.047
829.339
840.87
850.52
858.047
863.215
828.993
840.635
850.299
857.799
862.919
828.898
840.606
850.342
857.913
863.1
828.432
840.269
850.042
857.603
862.751
828.423
840.296
850.123
857.745
862.953
827.22
839.364
849.357
857.053
862.258
827.337
839.489
849.513
857.247
862.495
827.828
839.828
849.717
857.346
862.525
827.91
839.926
849.853
857.529
862.758
826.608
838.885
848.98
856.741
861.975
826.685
838.977
849.106
856.907
862.184
825.979
838.387
848.584
856.414
861.68
825.965
838.428
848.658
856.536
861.86
784.274
785.697
786.859
785.232
787.161
786.955
786.906
786.628
787.394
787.009
789.284
788.828
790.241
789.728
788.817
788.39
788.248
787.957
788.121
787.894
785.254
784.803
788.554
790.107
790.651
790.772
789.343
789.061
790.928
788.614
792.504
794.922
788.915
789.686
791.54
789.372
790.243
790.341
787.473
787.196
788.12
787.724
787.308
786.877
787.259
787.852
789.93
789.504
788.814
788.392
785.895
785.253
786.208
785.67
786.243
786.473
787.408
788.752
787.405
782.731
781.422
780.847
780.877
781.533
782.955
781.878
781.388
781.533
782.389
787.338
786.767
786.703
787.181
788.227
788.937
788.417
788.404
788.921
789.986
789.463
788.921
788.883
789.379
790.431
789.605
789.086
789.074
789.59
790.653
788.142
787.585
787.535
788.023
789.073
786.301
784.611
783.71
783.498
783.957
787.988
786.168
785.216
785.003
785.546
786.679
785.421
784.738
784.744
785.53
789.792
788.047
787.169
787.036
787.716
792.272
790.485
789.594
789.456
790.138
787.403
786.509
786.138
786.38
787.3
787.91
786.775
786.197
786.287
787.125
789.821
788.73
788.186
788.303
789.153
787.968
787.184
786.911
787.226
788.183
788.746
787.865
787.505
787.754
788.676
788.964
788.206
787.957
788.289
789.253
784.956
783.518
782.775
782.671
783.233
785.498
784.447
783.935
784.065
784.919
786.689
785.878
785.582
785.879
786.829
786.361
785.625
785.399
785.751
786.73
785.829
784.977
784.642
784.91
785.843
785.486
784.723
784.473
784.806
785.775
785.968
785.314
785.17
785.585
786.599
786.57
785.924
785.784
786.203
787.218
788.662
788.024
787.891
788.313
789.325
788.273
787.681
787.594
788.052
789.085
787.478
786.768
786.566
786.934
787.921
787.101
786.441
786.289
786.696
787.704
783.451
782.11
781.489
781.481
782.095
783.527
782.513
782.06
782.235
783.111
784.206
783.019
782.422
782.457
783.171
784.145
783.266
782.914
783.169
784.095
784.807
784.004
783.717
784.021
784.976
784.811
783.802
783.323
783.475
784.341
786.105
785.436
785.276
785.679
786.686
787.516
786.92
786.83
787.287
788.321
786.062
785.349
785.146
785.515
786.504
785.402
786.132
785.463
786.272
783.533
784.381
783.5
784.251
785.531
785.628
786.313
786.158
783.555
783.596
784.339
784.106
787.365
789.278
788.015
789.85
787.374
789.109
788.141
789.841
788.181
787.499
787.783
787.335
788.848
789.531
787.273
788.092
786.915
787.827
785.365
786.233
784.855
785.705
789.112
789.997
788.57
789.597
790.503
791.583
791.018
792.51
791.505
792.922
790.901
792.683
791.542
793.114
790.601
793.033
791.031
793.181
791.931
794.134
793.186
795.439
786.224
786.705
786.597
787.151
783.755
783.904
784.157
784.287
788.93
790.348
788.601
789.881
787.2
787.691
787.98
788.361
784.744
784.779
785.461
785.379
789.542
790.913
790.393
791.646
791.342
794.04
793.653
796.737
791.134
794.051
793.257
796.513
791.928
794.507
794.202
797.196
792.835
795.379
794.97
797.911
791.184
792.11
792.854
794.312
791.05
791.808
793.114
794.51
790.793
791.2
793.576
794.727
786.131
783.579
788.626
791.289
794.653
783.497
785.925
788.418
791.229
795.259
783.703
786.443
789.59
793.023
796.555
793.588
794.221
798.103
799.403
792.898
793.532
797.828
799.125
791.871
792.389
797.491
798.797
783.539
783.862
786.129
786.527
788.83
789.238
792.08
792.617
797.908
799.309
783.699
784.023
786.715
787.564
790.142
791.238
794.111
795.44
799.469
801.179
787.404
788.896
787.791
789.318
783.969
784.05
784.294
784.278
791.666
793.893
791.178
793.287
788.118
789.878
788.783
790.664
784.688
784.77
785.274
785.419
792.004
794.51
792.746
795.406
796.298
799.211
802.199
805.918
795.541
798.363
801.144
804.619
796.87
799.891
803.088
806.924
797.401
800.624
803.553
807.319
794.413
794.931
798.452
798.47
793.751
794.328
798.277
798.234
792.765
793.619
798.096
798.088
784.548
785.777
787.276
788.433
789.892
790.886
793.135
794.063
798.399
798.296
784.695
786.013
788.711
789.918
792.238
793.117
795.787
796.121
799.425
799.037
780.415
780.355
781.175
780.848
781.814
781.754
782.617
782.273
779.422
778.698
780.136
779.387
779.446
778.777
780.22
779.501
780.092
779.433
780.005
779.509
778.93
779.551
781.558
782.406
782.976
783.807
781.018
781.987
780.735
781.59
780.448
781.328
778.247
777.921
778.916
778.551
778.264
777.868
778.964
778.507
778.333
777.807
778.861
778.253
779.667
778.969
780.44
779.59
780.098
780.028
780.456
780.275
781.682
781.641
782.069
781.959
779.37
779.126
779.047
778.93
780.98
780.651
781.602
781.123
782.623
782.395
783.287
782.927
779.863
779.447
780.45
779.863
778.579
777.988
778.449
778.113
778.291
777.805
778.293
778.008
779.042
778.338
778.722
778.319
779.589
778.77
779.089
778.614
777.957
778.078
777.678
777.876
778.027
778.157
777.688
777.904
778.176
778.284
777.734
777.928
779.959
781.515
778.933
778.234
777.834
781.529
780.039
779.033
778.339
777.972
781.477
779.929
778.874
778.266
778.019
778.565
779.412
778.461
779.378
778.572
779.361
778.419
779.297
778.598
779.299
778.355
779.161
781.527
781.842
780.038
780.439
779.117
779.627
778.518
779.118
778.296
779.028
781.375
781.472
779.855
780.015
778.888
779.213
778.387
778.906
778.297
779.024
779.786
779.674
780.072
779.796
781.376
781.127
781.722
781.27
779.079
779.118
778.847
779.015
780.54
780.139
781.013
780.633
782.227
781.654
782.755
782.206
779.473
779.425
779.895
779.879
778.571
778.942
778.552
779.248
778.399
778.873
778.387
779.135
778.864
779.19
778.798
779.501
779.259
779.611
779.112
779.828
780.445
781.408
780.711
781.851
780.324
781.357
780.607
781.814
780.215
781.352
780.445
781.842
782.526
783.762
781.199
782.469
780.437
781.723
780.015
781.337
780.32
781.964
782.005
783.431
780.658
782.156
780.038
781.613
779.947
781.594
780.458
782.318
778.397
780.032
782.87
787.55
778.98
780.612
783.485
788.174
778.357
779.984
782.812
787.526
778.916
780.529
783.376
788.048
778.326
779.941
782.627
787.189
778.675
780.261
782.991
787.566
779.302
780.83
783.615
788.212
779.783
781.219
783.957
788.476
778.479
780.057
782.677
787.166
778.764
780.355
782.719
786.723
778.391
780.001
782.497
786.755
778.708
780.33
782.651
786.514
778.715
780.239
782.93
787.493
778.893
780.437
782.825
786.848
779.025
780.469
783.127
787.584
779.092
780.57
782.931
786.879
778.208
779.839
782.517
786.972
778.478
780.097
782.513
786.467
778.243
779.87
782.508
786.935
778.534
780.155
782.549
786.466
778.331
779.955
782.493
786.79
778.604
780.229
782.594
786.452
778.505
780.131
782.522
786.557
778.703
780.333
782.636
786.377
778.751
780.385
782.64
786.314
779.108
780.719
782.991
785.853
779.934
781.542
783.853
786.522
779.104
780.72
782.985
785.836
779.932
781.549
783.859
786.529
779.113
780.739
783.008
785.863
779.943
781.575
783.889
786.546
779.126
780.766
783.013
785.858
779.957
781.607
783.917
786.569
779.161
780.816
783.029
785.849
779.993
781.666
783.97
786.613
779.411
781.043
783.244
786.036
780.158
781.829
784.104
786.746
779.261
780.915
783.129
785.939
780.042
781.725
784.018
786.658
779.609
781.199
783.389
786.174
780.361
781.99
784.237
786.855
779.841
781.366
783.519
786.283
780.62
782.179
784.382
786.975
794.482
800.016
804.705
808.508
811.432
794.835
800.302
804.974
808.772
811.694
794.483
800.021
804.707
808.509
811.432
794.831
800.297
804.966
808.761
811.681
794.457
800.019
804.705
808.505
811.427
794.655
800.13
804.796
808.589
811.509
794.883
800.329
804.98
808.765
811.681
794.941
800.355
804.989
808.765
811.677
794.492
800.042
804.72
808.514
811.434
794.798
800.461
805.148
808.939
811.855
794.502
800.109
804.799
808.597
811.517
794.835
800.523
805.218
809.011
811.928
794.575
800.096
804.761
808.548
811.465
794.908
800.551
805.228
809.013
811.926
794.622
800.119
804.769
808.549
811.462
795.001
800.625
805.288
809.066
811.975
794.498
800.133
804.838
808.644
811.568
794.878
800.604
805.318
809.121
812.042
794.518
800.16
804.863
808.668
811.591
794.89
800.618
805.331
809.133
812.054
794.57
800.229
804.931
808.732
811.654
794.936
800.666
805.375
809.174
812.094
794.731
800.428
805.13
808.928
811.847
795.053
800.779
805.482
809.278
812.196
794.996
800.702
805.4
809.194
812.11
807.707
808.753
807.849
808.918
808.176
809.273
808.699
809.775
809.544
810.477
811.704
812.923
810.739
811.799
812.531
813.872
813.273
814.632
821.14
834.838
845.892
854.251
859.796
820.833
834.673
845.871
854.293
859.936
821.271
834.932
845.96
854.304
859.839
821.006
834.808
845.945
854.382
859.995
821.54
835.119
846.094
854.407
859.927
821.268
834.987
846.072
854.479
860.077
821.958
835.407
846.302
854.57
860.068
821.653
835.249
846.259
854.625
860.204
822.554
835.809
846.596
854.804
860.274
822.151
835.581
846.5
854.816
860.372
823.983
836.808
847.341
855.398
860.788
823.719
836.647
847.281
855.424
860.882
823.258
836.281
846.944
855.082
860.517
822.87
836.048
846.84
855.082
860.597
824.67
837.338
847.752
855.729
861.075
824.525
837.256
847.743
855.788
861.192
825.337
837.872
848.174
856.076
861.379
825.261
837.862
848.207
856.164
861.529
783.191
784.538
783.614
782.208
780.448
781.178
780.433
781.267
781.834
782.698
781.832
782.575
795.891
795.667
795.103
794.205
792.994
791.538
795.99
795.777
795.241
794.4
793.295
791.998
796.481
797.367
796.227
797.077
795.593
796.358
794.573
795.181
793.207
793.676
791.622
792.129
789.98
788.511
787.261
786.243
785.488
784.932
790.618
789.284
788.091
787.093
786.321
785.775
794.803
794.373
794.447
795.028
796.118
794.577
794.143
794.215
794.794
795.883
794.007
793.568
793.634
794.21
795.298
793.1
792.652
792.709
793.279
794.365
791.875
791.412
791.455
792.014
793.096
790.397
789.91
789.93
790.472
791.548
794.901
794.47
794.542
795.122
796.211
794.686
794.251
794.321
794.899
795.986
794.144
793.703
793.767
794.34
795.427
793.294
792.843
792.897
793.464
794.548
792.174
791.708
791.747
792.303
793.383
790.856
790.367
790.384
790.923
791.997
795.396
794.967
795.042
795.623
796.712
796.284
795.857
795.932
796.513
797.599
795.139
794.708
794.78
795.36
796.448
795.991
795.561
795.633
796.212
797.298
794.5
794.062
794.13
794.706
795.793
795.266
794.83
794.897
795.472
796.557
793.47
793.023
793.081
793.65
794.736
794.079
793.631
793.688
794.256
795.339
792.088
791.625
791.668
792.227
793.309
792.557
792.091
792.131
792.686
793.765
790.481
789.994
790.014
790.555
791.63
790.986
790.495
790.509
791.046
792.118
788.807
788.285
788.271
788.786
789.85
787.294
786.721
786.657
787.135
788.181
785.98
785.337
785.205
785.63
786.65
784.871
784.136
783.918
784.277
785.262
784.01
783.181
782.883
783.182
784.134
783.381
782.499
782.16
782.428
783.363
789.447
788.926
788.912
789.427
790.489
788.074
787.51
787.453
787.935
788.983
786.831
786.213
786.103
786.545
787.572
785.776
785.095
784.927
785.325
786.33
784.947
784.211
783.993
784.353
785.339
784.368
783.602
783.359
783.701
784.677
795.77
795.306
794.501
793.36
791.903
790.196
795.871
795.419
794.645
793.569
792.236
790.729
796.356
797.236
795.852
796.682
794.965
795.697
793.688
794.246
792.062
792.47
790.189
790.588
788.407
786.787
785.516
784.699
784.409
784.541
789.182
787.764
786.617
785.839
785.47
785.473
794.683
794.253
794.328
794.91
796
794.216
793.785
793.859
794.44
795.531
793.406
792.97
793.041
793.621
794.712
792.258
791.815
791.879
792.455
793.547
790.789
790.335
790.389
790.958
792.049
789.065
788.593
788.63
789.187
790.274
794.782
794.351
794.424
795.005
796.094
794.329
793.896
793.968
794.548
795.638
793.55
793.112
793.181
793.758
794.849
792.466
792.02
792.082
792.656
793.745
791.12
790.663
790.714
791.28
792.367
789.595
789.12
789.153
789.707
790.791
795.271
794.842
794.918
795.5
796.59
796.153
795.726
795.802
796.383
797.471
794.764
794.334
794.409
794.991
796.08
795.597
795.168
795.243
795.824
796.912
793.873
793.439
793.51
794.09
795.181
794.606
794.173
794.244
794.824
795.912
792.587
792.146
792.211
792.787
793.878
793.146
792.705
792.769
793.345
794.434
790.949
790.496
790.551
791.121
792.211
791.357
790.903
790.956
791.524
792.612
789.059
788.588
788.627
789.186
790.273
789.457
788.986
789.022
789.58
790.665
787.25
786.75
786.761
787.299
788.379
785.592
785.051
785.022
785.531
786.597
784.265
783.664
783.577
784.041
785.085
783.363
782.675
782.506
782.908
783.919
782.962
782.172
781.916
782.249
783.223
783.004
782.137
781.814
782.096
783.04
788.023
787.521
787.529
788.064
789.14
786.572
786.033
786.004
786.512
787.576
785.38
784.79
784.713
785.184
786.23
784.544
783.893
783.758
784.184
785.207
784.114
783.401
783.208
783.59
784.589
784.072
783.315
783.082
783.432
784.413
784.578
784.275
786.573
788.399
788.526
788.945
787.266
783.485
784.015
783.586
785.2
784.816
784.623
785.701
785.957
786.627
783.333
783.328
784.571
784.676
783.921
784.119
785.087
785.327
786.991
786.977
785.624
785.598
783.915
783.799
783.244
783.636
783.787
783.3
784.959
786.408
784.641
782.099
780.85
780.319
780.387
781.079
782.451
781.405
780.944
781.113
781.985
785.385
784.854
784.833
785.349
786.42
787.247
786.752
786.769
787.312
788.394
787.366
786.862
786.868
787.402
788.479
787.797
787.307
787.327
787.872
788.955
786.094
785.578
785.573
786.101
787.176
781.306
780.171
779.696
779.815
780.509
781.903
780.816
780.389
780.557
781.318
782.003
781.109
780.764
781.03
781.965
783.32
782.353
782.011
782.257
783.142
783.489
782.811
782.653
783.064
784.08
783.176
782.394
782.145
782.487
783.464
784.433
783.812
783.706
784.154
785.19
784.662
784.011
783.876
784.303
785.326
785.38
784.779
784.691
785.152
786.194
781.195
780.089
779.633
779.768
780.491
781.831
781.004
780.713
781.02
781.979
783.27
782.617
782.481
782.908
783.934
783.404
782.781
782.673
783.122
784.16
782.571
781.872
781.694
782.09
783.098
782.81
782.149
782.006
782.428
783.452
783.84
783.245
783.164
783.633
784.68
784.1
783.525
783.463
783.947
785.002
785.787
785.233
785.191
785.688
786.747
785.791
785.258
785.236
785.75
786.818
784.382
783.789
783.708
784.178
785.224
784.373
783.8
783.739
784.224
785.279
781.599
780.429
779.937
780.038
780.755
782.135
781.195
780.817
781.054
781.97
781.421
780.43
780.014
780.201
781.018
782.181
781.388
781.126
781.454
782.425
782.427
781.717
781.529
781.916
782.92
781.788
780.947
780.639
780.932
781.883
783.712
783.115
783.033
783.501
784.548
785.214
784.674
784.646
785.155
786.222
783.373
782.754
782.65
783.103
784.142
785.201
784.196
783.804
783.984
784.684
786.029
785.169
785.256
783.26
783.224
785.342
785.497
783.313
783.391
787.216
789.349
787.232
789.154
787.426
787.316
788.802
785.122
785.217
783.189
783.142
785.311
785.464
783.256
783.365
787.34
789.6
787.347
789.344
787.528
787.362
788.963
785.157
785.26
783.175
783.117
785.359
785.516
783.259
783.37
787.454
790.187
787.462
789.85
787.638
787.458
789.385
785.536
785.635
783.506
783.445
785.74
785.923
783.592
783.718
787.982
790.866
787.963
790.503
788.108
787.896
789.943
786.196
786.288
784.17
784.111
786.387
786.603
784.25
784.37
788.655
791.348
788.621
791.056
788.731
788.564
790.51
787.374
787.456
785.383
785.327
787.528
787.703
785.457
785.558
789.698
792.187
789.642
791.91
789.727
789.55
791.357
780.167
780.153
781.546
781.543
780.18
780.198
781.57
781.607
779.155
778.38
779.202
778.499
779.213
779.338
778.731
780.077
780.08
781.466
781.45
780.131
780.177
781.511
781.556
779.024
778.382
779.097
778.527
779.16
779.328
778.769
780.04
780.063
781.438
781.406
780.143
780.216
781.507
781.581
779.094
778.651
779.185
778.781
779.293
779.465
779.004
780.369
780.406
781.762
781.721
780.503
780.606
781.841
781.913
779.51
779.26
779.615
779.379
779.764
779.968
779.59
781.067
781.109
782.44
782.397
781.232
781.376
782.518
782.598
780.289
780.152
780.402
780.245
780.57
780.793
780.421
782.341
782.384
783.683
783.642
782.506
782.627
783.76
783.833
781.578
781.31
781.685
781.411
781.822
782.011
781.59
796.144
795.811
795.151
794.607
793.699
793.152
791.65
791.211
792.019
791.505
793.625
793.104
794.784
794.287
795.706
795.348
793.287
792.591
792.352
791.392
790.806
789.911
789.954
788.821
797.426
799.534
797.064
799.029
796.505
798.531
795.912
797.82
794.489
795.574
793.495
794.865
797.322
796.156
791.18
789.461
790.256
788.979
788.931
787.493
787.828
786.739
793.306
791.507
792.276
790.919
794.987
793.242
801.956
803.375
800.959
802.428
800.942
802.728
799.755
801.389
799.5
801.924
797.702
799.937
796.322
798.527
794.767
797.004
792.801
792.498
791.309
791.172
789.518
789.12
788.347
787.946
794.158
794.616
795.93
796.037
790.049
790.071
788.91
789.157
787.287
786.957
786.29
786.109
792.713
793.438
791.437
792.488
796.947
799.649
798.03
801.087
798.875
801.657
799.527
802.712
795.364
797.982
796.802
799.793
793.972
796.546
795.838
798.779
805.371
808.52
805.876
809.01
804.413
807.329
805.36
808.343
802.846
805.075
804.514
806.964
794.933
791.038
798.462
801.124
803.992
791.558
795.672
799.87
802.719
805.837
790.599
794.268
797.824
801.188
804.47
811.428
812.808
813.049
814.282
809.914
811.503
812.037
813.371
807.365
809.147
810.346
811.939
792.415
793.82
796.914
798.856
801.055
803.083
804.372
806.39
808.778
810.821
791.229
792.363
795.338
797.375
799.2
801.536
803.045
805.582
807.895
810.584
793.51
795.812
791.856
793.896
789.479
790.091
788.011
788.323
795.941
798.683
797.559
800.469
790.449
792.499
789.549
791.505
786.827
787.119
785.98
786.179
794.463
797.263
793.553
796.289
800.592
803.941
806.356
810.447
801.891
805.402
807.213
811.223
799.39
802.637
805.53
809.557
798.253
801.532
804.331
808.144
813.147
813.671
814.769
813.452
813.597
814.59
812.165
812.845
814.015
812.721
812.928
814.003
810.223
811.151
812.467
811.647
812.014
813.226
795.549
797.536
799.666
800.911
802.634
804.506
804.984
806.449
808.086
807.922
809.132
810.692
810.805
811.35
812.773
793.956
796.176
798.581
800.073
802.396
804.776
804.269
806.298
808.418
807.663
809.144
811.001
810.775
811.505
813.149
786.392
785.675
785.763
784.844
788.385
787.494
787.658
786.561
785.929
784.389
785.767
784.331
785.496
784.118
785.19
783.894
784.191
784.791
783.821
784.523
783.87
783.375
784.132
783.303
785.687
784.754
783.789
783.012
783.245
782.497
783.091
782.328
782.836
781.462
783.105
781.802
782.645
781.229
782.714
781.395
782.493
780.94
782.167
780.736
781.921
780.649
781.268
780.204
784.696
784.058
783.888
783.167
786.789
786.231
785.832
785.222
782.523
781.666
783.225
782.445
783.093
782.394
782.298
781.711
784.921
784.351
784.038
783.585
781.828
780.986
781.106
780.382
781.373
780.126
780.667
779.904
781.937
780.611
781.347
780.474
780.81
779.695
780.07
779.411
780.185
779.234
779.545
778.984
782.838
783.452
781.581
782.234
782.828
783.482
781.492
782.174
782.826
783.418
781.355
781.969
785.265
787.736
783.709
782.492
781.184
788.21
785.761
784.296
783.1
781.726
787.29
784.888
783.167
782.003
781.038
784.547
786.072
783.347
784.831
784.474
785.924
783.177
784.601
784.279
785.647
782.846
784.175
788.824
789.98
786.231
787.409
784.741
785.955
783.61
784.85
782.321
783.574
787.662
788.323
785.201
785.869
783.531
784.341
782.451
783.455
781.611
782.873
783.884
784.079
782.969
782.899
786.126
786.246
785.02
784.797
781.642
781.909
782.426
782.914
782.268
781.99
781.589
781.24
784.162
783.739
783.396
782.887
781.014
781.099
780.408
780.43
780.809
781.43
780.397
781.407
781.528
782.339
780.959
782.112
780.223
780.68
779.912
780.79
779.73
780.12
779.482
780.244
788.155
790.222
792.169
787.395
789.732
791.686
787.874
789.965
791.957
787.061
789.412
791.45
787.478
789.529
791.551
786.522
788.984
791.159
791.554
793.533
795.681
789.023
791.079
793.275
787.602
789.75
791.984
786.6
788.743
790.902
785.933
788.523
790.894
789.562
791.699
794.13
787.177
789.36
791.801
785.849
788.168
790.684
785.241
787.686
790.225
785.344
788.06
790.667
780.849
781.685
784
788.318
781.244
782.143
784.538
788.896
780.676
781.547
783.868
788.225
780.923
781.886
784.303
788.672
780.457
781.379
783.602
787.829
780.365
781.405
783.781
788.099
780.438
781.6
784.147
788.575
780.196
781.499
784.151
788.61
779.944
781.053
783.372
787.65
780.018
781.209
783.328
787.175
780.308
781.298
783.392
787.362
780.426
781.493
783.46
787.083
779.649
780.876
783.38
787.816
779.663
780.963
783.209
787.146
779.348
780.69
783.283
787.696
779.353
780.749
783.063
786.983
780.909
781.648
783.751
787.815
781.445
782.062
783.852
787.4
780.861
781.626
783.697
787.732
781.424
782.072
783.85
787.362
780.796
781.61
783.613
787.53
781.313
782.032
783.814
787.284
780.779
781.658
783.561
787.247
781.207
782.005
783.765
787.137
780.833
781.785
783.6
786.974
782.278
782.786
784.393
786.919
783.217
783.656
785.298
787.661
782.179
782.734
784.353
786.87
783.114
783.609
785.272
787.644
781.992
782.636
784.294
786.829
782.926
783.519
785.225
787.602
781.72
782.486
784.181
786.729
782.671
783.388
785.147
787.543
781.367
782.289
784.046
786.619
782.371
783.237
785.063
787.485
780.689
781.907
783.862
786.533
781.594
782.791
784.783
787.295
781.023
782.1
783.959
786.584
781.981
783.016
784.924
787.387
780.389
781.728
783.772
786.493
781.236
782.58
784.655
787.195
780.102
781.543
783.648
786.392
780.91
782.374
784.521
787.088
794.935
800.294
804.878
808.625
811.524
795.275
800.576
805.148
808.891
811.788
794.893
800.273
804.865
808.614
811.514
795.205
800.528
805.109
808.857
811.756
794.819
800.24
804.844
808.597
811.499
794.965
800.321
804.916
808.669
811.571
795.1
800.462
805.063
808.821
811.724
795.023
800.405
805.02
808.786
811.693
794.773
800.213
804.827
808.585
811.49
795.047
800.611
805.242
809.002
811.904
794.833
800.31
804.925
808.681
811.583
795.132
800.702
805.329
809.086
811.986
794.769
800.214
804.835
808.598
811.504
795.078
800.654
805.292
809.055
811.959
794.689
800.16
804.795
808.566
811.475
795.06
800.661
805.31
809.08
811.986
794.968
800.416
805.013
808.76
811.658
795.36
800.89
805.493
809.237
812.132
794.961
800.428
805.031
808.78
811.679
795.356
800.898
805.505
809.25
812.145
794.969
800.469
805.081
808.833
811.732
795.36
800.92
805.533
809.28
812.177
795.087
800.642
805.263
809.017
811.917
795.427
801.003
805.622
809.372
812.269
795.324
800.899
805.522
809.276
812.174
819.85
820.759
819.431
820.364
818.706
819.739
817.789
818.995
816.886
818.275
815.482
817.096
816.204
817.779
814.762
816.321
814.008
815.428
830.025
841.227
850.694
858.096
863.177
829.85
841.132
850.707
858.159
863.325
829.836
841.126
850.629
858.048
863.134
829.687
841.065
850.649
858.144
863.298
829.477
840.925
850.496
857.948
863.048
829.341
840.871
850.521
858.048
863.215
828.994
840.636
850.3
857.8
862.92
828.899
840.608
850.343
857.914
863.1
828.433
840.27
850.043
857.604
862.751
828.424
840.297
850.124
857.745
862.954
827.222
839.365
849.359
857.054
862.259
827.338
839.49
849.514
857.248