/*--------------------------------*- C++ -*----------------------------------*\
  =========                 |
  \\      /  F ield         | OpenFOAM: The Open Source CFD Toolbox
   \\    /   O peration     | Website:  https://openfoam.org
    \\  /    A nd           | Version:  12
     \\/     M anipulation  |
\*---------------------------------------------------------------------------*/
FoamFile
{
    format      ascii;
    class       volScalarField;
    location    "445";
    object      T;
}
// * * * * * * * * * * * * * * * * * * * * * * * * * * * * * * * * * * * * * //

dimensions      [];

internalField   nonuniform List<scalar> 
4480
(
1.73006e-06
0.000101568
0.0143316
0.0957442
0.220692
0.3461
0.454885
0.543784
0.61464
0.670604
0.714744
0.749644
0.777341
0.799418
0.817075
0.831227
0.842571
0.851644
0.858853
0.864512
0.868875
0.872133
0.874439
0.87591
0.876644
0.876716
0.87619
0.875341
0.874481
0.873606
0.872713
0.871797
0.870851
0.869872
0.868854
0.867795
0.866687
0.865527
0.864305
0.863021
0.86167
0.860238
0.858722
0.857119
0.855419
0.853612
0.851692
0.849655
0.847486
0.845175
0.84272
0.840112
0.837331
0.834376
0.831233
0.827889
0.824341
0.820578
0.81658
0.812346
0.807856
0.803105
0.798079
0.792772
0.787162
0.781254
0.775019
0.768464
0.761559
0.754313
0.746698
0.738712
0.73034
0.721573
0.712398
0.702802
0.692774
0.6823
0.671365
0.659956
0.648054
0.635641
0.622697
0.609272
0.595363
0.58095
0.566019
0.550555
0.534546
0.51799
0.500893
0.483278
0.465185
0.446675
0.427839
0.408788
0.389667
0.370643
0.351909
0.333674
0.31616
0.29959
0.284185
0.270166
0.257727
0.247052
0.238307
0.231639
0.227179
0.225051
0.225374
0.22827
0.233863
0.242296
0.253711
0.268264
0.286099
0.307341
0.332083
0.360459
0.39295
0.430871
0.476462
0.535073
0.627457
0.764575
0.862818
0.938865
0.926002
0.820569
0.722487
0.583893
0.466352
0.376488
0.298638
0.228856
0.165719
0.108796
0.0596284
0.0204702
7.22963e-07
0.00312796
0.0853355
0.274311
0.462626
0.609124
0.713619
0.786098
0.836243
0.871276
0.896132
0.914088
0.927304
0.937201
0.944719
0.950505
0.954995
0.958494
0.96122
0.963334
0.964953
0.966157
0.967014
0.967571
0.967869
0.967932
0.967785
0.967316
0.966436
0.965188
0.96361
0.961742
0.959622
0.957285
0.954759
0.95208
0.949271
0.946357
0.943355
0.940286
0.937164
0.934002
0.930803
0.927582
0.924342
0.921082
0.917809
0.914518
0.911208
0.907878
0.904522
0.90114
0.897721
0.89426
0.890754
0.887189
0.883569
0.879878
0.87611
0.872265
0.868323
0.864292
0.860152
0.855904
0.851541
0.847061
0.842449
0.837701
0.832819
0.827799
0.822628
0.817308
0.811832
0.806202
0.800403
0.794443
0.788314
0.78201
0.77554
0.768893
0.762064
0.755066
0.747883
0.740539
0.73305
0.725408
0.71762
0.709699
0.701641
0.693465
0.68518
0.676798
0.66834
0.65983
0.651296
0.642768
0.634296
0.625919
0.617702
0.609716
0.602044
0.594779
0.588031
0.581921
0.576594
0.572194
0.568893
0.566857
0.566278
0.567337
0.570223
0.575104
0.582152
0.591505
0.603274
0.617537
0.634327
0.653644
0.675465
0.699794
0.726748
0.756619
0.789772
0.826485
0.866461
0.906479
0.940078
0.962838
0.947109
0.884387
0.81807
0.74442
0.66587
0.584147
0.49934
0.411676
0.32176
0.23127
0.144088
0.0677344
0.000140013
0.025999
0.225372
0.473986
0.660352
0.779393
0.851912
0.896036
0.923456
0.941068
0.952827
0.961013
0.966928
0.971346
0.974727
0.977362
0.979439
0.981082
0.982382
0.983403
0.984196
0.984793
0.985226
0.985517
0.985681
0.985733
0.985683
0.985506
0.985166
0.984663
0.984
0.983169
0.982171
0.981
0.97966
0.978148
0.976472
0.974637
0.972651
0.970523
0.968265
0.965885
0.963399
0.960814
0.958141
0.955395
0.95258
0.949708
0.946783
0.943815
0.940811
0.937772
0.9347
0.931599
0.928476
0.925321
0.922146
0.918943
0.915711
0.912454
0.909166
0.905849
0.902495
0.899111
0.895689
0.892227
0.888726
0.885183
0.881592
0.87796
0.874272
0.87054
0.866755
0.862919
0.859023
0.855076
0.851075
0.847014
0.842897
0.838729
0.834499
0.830219
0.82588
0.821496
0.817062
0.812594
0.808098
0.803576
0.799033
0.794488
0.789947
0.785427
0.780948
0.776523
0.772182
0.767953
0.763865
0.759953
0.756264
0.752844
0.749741
0.747014
0.744736
0.742967
0.741793
0.741296
0.741555
0.742667
0.744726
0.747816
0.752024
0.757429
0.764099
0.77208
0.781404
0.792071
0.804067
0.81734
0.831824
0.847441
0.864096
0.881654
0.899872
0.918282
0.936095
0.952078
0.964548
0.971361
0.959919
0.919846
0.876296
0.827232
0.770933
0.705951
0.63098
0.54495
0.447403
0.339425
0.225399
0.11504
0.0021931
0.100575
0.405519
0.654907
0.801634
0.880149
0.921881
0.944841
0.958237
0.96666
0.972391
0.97658
0.97981
0.982378
0.984452
0.986137
0.987508
0.988616
0.989505
0.990208
0.990757
0.991174
0.991478
0.991689
0.991817
0.99187
0.991858
0.991774
0.991609
0.991363
0.991036
0.990621
0.990117
0.989515
0.988808
0.987992
0.987063
0.986011
0.984838
0.983542
0.982122
0.980582
0.978923
0.977153
0.975275
0.973299
0.971229
0.969076
0.966845
0.964547
0.962189
0.959776
0.957318
0.954818
0.952286
0.949726
0.947141
0.944533
0.941913
0.939276
0.936631
0.933972
0.931309
0.928642
0.925966
0.923286
0.920605
0.917917
0.915228
0.912531
0.90983
0.907127
0.904415
0.901701
0.898977
0.896246
0.89351
0.89077
0.888021
0.885261
0.882497
0.879731
0.876966
0.874184
0.871403
0.868626
0.865854
0.863099
0.860363
0.857651
0.854975
0.852346
0.84978
0.847285
0.844888
0.842597
0.840447
0.838454
0.836649
0.835066
0.833742
0.832709
0.832013
0.831697
0.831814
0.832402
0.833524
0.835223
0.83755
0.840552
0.844273
0.848742
0.853989
0.860025
0.866842
0.874421
0.882725
0.891693
0.901245
0.911273
0.921642
0.932157
0.942551
0.952444
0.961331
0.968545
0.973211
0.974082
0.965907
0.93878
0.908077
0.873212
0.832076
0.782177
0.720564
0.643807
0.548474
0.432246
0.296797
0.152369
0.0136289
0.24008
0.590252
0.7939
0.889578
0.933306
0.954326
0.965429
0.97207
0.976629
0.980125
0.982993
0.985402
0.987427
0.989111
0.990493
0.991614
0.99251
0.993213
0.993757
0.99417
0.994475
0.994694
0.994842
0.994932
0.994974
0.994975
0.99493
0.994833
0.994685
0.994485
0.994233
0.993927
0.993562
0.993136
0.992643
0.992077
0.991435
0.990709
0.989898
0.988995
0.988002
0.986911
0.985728
0.98445
0.983081
0.981625
0.980084
0.978463
0.97677
0.975011
0.97319
0.971315
0.969393
0.967431
0.965437
0.963414
0.961366
0.959304
0.957228
0.955144
0.953055
0.950969
0.948886
0.946804
0.944735
0.942672
0.940619
0.93858
0.936554
0.93454
0.932537
0.930552
0.928579
0.926621
0.924675
0.922746
0.920829
0.91892
0.917031
0.915153
0.913289
0.911443
0.909605
0.907782
0.905977
0.904191
0.902426
0.900692
0.898993
0.897334
0.895722
0.894172
0.89269
0.891287
0.889978
0.888781
0.887714
0.886793
0.886045
0.885487
0.885148
0.885056
0.885241
0.885728
0.886555
0.887747
0.889335
0.891348
0.893816
0.896749
0.900171
0.904083
0.908485
0.913364
0.918685
0.924414
0.930488
0.93683
0.943336
0.949877
0.956289
0.962354
0.967797
0.972263
0.975313
0.976349
0.974511
0.967883
0.948927
0.925462
0.898963
0.867761
0.829436
0.780464
0.715732
0.62861
0.511563
0.359974
0.181296
0.0483865
0.420701
0.74691
0.884281
0.93676
0.958208
0.968319
0.974055
0.978021
0.981238
0.984079
0.986606
0.988799
0.990649
0.992161
0.99337
0.994313
0.995029
0.995563
0.995946
0.996213
0.996391
0.996505
0.996572
0.996605
0.996615
0.996608
0.996584
0.996525
0.996433
0.996307
0.996146
0.99595
0.995716
0.995441
0.995122
0.994756
0.994338
0.993864
0.993332
0.992737
0.992073
0.99134
0.990536
0.98966
0.988708
0.987684
0.986588
0.985424
0.984193
0.9829
0.98155
0.980148
0.978699
0.977208
0.975682
0.974128
0.972549
0.970948
0.969337
0.96772
0.966095
0.964473
0.962854
0.961241
0.959642
0.958052
0.956478
0.954925
0.953385
0.951865
0.950364
0.948885
0.947428
0.945988
0.944571
0.943171
0.941796
0.94044
0.939102
0.937785
0.936491
0.935218
0.933965
0.932723
0.931504
0.930309
0.929139
0.927996
0.926884
0.925813
0.924784
0.923805
0.92288
0.922023
0.921242
0.920548
0.919957
0.919474
0.919118
0.918909
0.918857
0.918986
0.919316
0.919859
0.920643
0.921679
0.922995
0.9246
0.926508
0.928734
0.931277
0.934137
0.937306
0.940768
0.944489
0.948434
0.952547
0.95676
0.960982
0.965105
0.96899
0.972467
0.975321
0.977289
0.978035
0.977111
0.9739
0.967539
0.954258
0.935206
0.913715
0.888688
0.858246
0.819248
0.766084
0.689996
0.577938
0.416037
0.204679
0.118992
0.602591
0.856331
0.933403
0.958684
0.968982
0.974406
0.978085
0.981149
0.984013
0.986748
0.989234
0.991355
0.993081
0.994433
0.995459
0.996205
0.996722
0.997052
0.997242
0.997328
0.997345
0.997319
0.997276
0.997229
0.997189
0.997159
0.997143
0.997112
0.997066
0.997004
0.996921
0.996816
0.996686
0.99653
0.99634
0.996117
0.995856
0.995554
0.995209
0.994816
0.994372
0.993878
0.993327
0.992722
0.992058
0.991334
0.990552
0.989716
0.988821
0.987873
0.986878
0.985834
0.984745
0.983621
0.982464
0.981275
0.980066
0.978838
0.977595
0.976343
0.975086
0.973829
0.972574
0.971329
0.970092
0.968865
0.967656
0.96646
0.965286
0.964128
0.962993
0.961873
0.96078
0.959708
0.958655
0.957622
0.956611
0.955624
0.95466
0.953711
0.952788
0.95189
0.951002
0.950135
0.949289
0.948462
0.947658
0.946881
0.946132
0.945412
0.944729
0.944089
0.94349
0.942947
0.942459
0.942041
0.941697
0.941436
0.941272
0.941211
0.941272
0.941462
0.941793
0.942282
0.942939
0.943776
0.944805
0.946032
0.947472
0.949118
0.950976
0.95304
0.9553
0.957734
0.960313
0.963006
0.965765
0.968527
0.971218
0.973742
0.975984
0.977803
0.979028
0.979443
0.978779
0.976693
0.972725
0.966291
0.956274
0.94067
0.92238
0.901199
0.875764
0.843734
0.799939
0.735044
0.631653
0.465098
0.224547
0.229005
0.752547
0.918591
0.95589
0.968083
0.973821
0.97746
0.980406
0.983213
0.986072
0.988888
0.99139
0.993432
0.995005
0.996163
0.996973
0.997492
0.997772
0.997864
0.997816
0.997676
0.997485
0.997284
0.997095
0.99694
0.996828
0.996765
0.996747
0.996742
0.996742
0.996745
0.996743
0.996734
0.996713
0.996673
0.99661
0.996519
0.9964
0.996249
0.996057
0.99583
0.99556
0.995246
0.994887
0.994479
0.994027
0.993526
0.992976
0.992377
0.991734
0.991043
0.990309
0.989535
0.988725
0.987878
0.987002
0.9861
0.985176
0.984234
0.983279
0.982316
0.981343
0.980372
0.979402
0.978434
0.977477
0.97653
0.975597
0.974675
0.973769
0.972882
0.972015
0.971163
0.970334
0.96952
0.968728
0.967956
0.967203
0.966472
0.965759
0.965063
0.964393
0.963738
0.963103
0.96248
0.961876
0.961289
0.96072
0.960173
0.959653
0.959153
0.958684
0.958249
0.957846
0.957482
0.957167
0.9569
0.956691
0.956544
0.956469
0.956469
0.95656
0.956739
0.957025
0.957423
0.957937
0.958582
0.959355
0.96027
0.961323
0.962521
0.963854
0.965316
0.966899
0.968581
0.970337
0.972134
0.97393
0.975669
0.97729
0.978704
0.97982
0.980512
0.98064
0.98002
0.978435
0.975607
0.971194
0.964784
0.955924
0.943518
0.927443
0.908797
0.886528
0.859044
0.821989
0.766731
0.673476
0.507014
0.242186
0.374435
0.851787
0.946829
0.965273
0.972422
0.976404
0.979328
0.981996
0.984783
0.987769
0.990722
0.993229
0.995141
0.996518
0.99745
0.99802
0.99828
0.998282
0.998082
0.997738
0.997312
0.996861
0.996429
0.996054
0.995758
0.995555
0.995446
0.995424
0.995443
0.995497
0.995576
0.995671
0.995773
0.995876
0.995971
0.99605
0.996107
0.996137
0.996135
0.996102
0.996029
0.99592
0.995769
0.995575
0.995339
0.995059
0.994735
0.994369
0.993961
0.99351
0.99302
0.992491
0.991927
0.991329
0.990699
0.990044
0.989361
0.98866
0.987941
0.987209
0.986468
0.985721
0.984969
0.984218
0.983471
0.982729
0.981996
0.981272
0.980559
0.979862
0.979178
0.978509
0.977856
0.977217
0.976598
0.975995
0.975409
0.974841
0.974289
0.973755
0.973235
0.972736
0.972252
0.971786
0.971327
0.970885
0.970459
0.970048
0.969654
0.969276
0.968922
0.968584
0.968277
0.967993
0.967742
0.967525
0.967346
0.967205
0.967115
0.967074
0.967094
0.967172
0.96732
0.96754
0.967841
0.968223
0.968698
0.96926
0.969917
0.970666
0.971511
0.972437
0.973444
0.974516
0.975635
0.976775
0.977913
0.979002
0.979997
0.980838
0.981453
0.981759
0.981646
0.98099
0.979643
0.977419
0.974095
0.969403
0.96304
0.954678
0.944001
0.930189
0.91334
0.893167
0.868627
0.836077
0.78821
0.704773
0.541817
0.258427
0.53759
0.902538
0.957105
0.969642
0.97487
0.978047
0.980617
0.983191
0.986055
0.989231
0.99234
0.994799
0.996527
0.997672
0.998366
0.998674
0.99864
0.998306
0.997742
0.997023
0.996231
0.995443
0.994719
0.994108
0.993637
0.993319
0.993156
0.993127
0.993179
0.993299
0.993474
0.993689
0.993931
0.994186
0.994442
0.99469
0.994918
0.995122
0.995293
0.99543
0.995528
0.995584
0.995596
0.995565
0.995491
0.995375
0.995213
0.995008
0.994763
0.994479
0.994152
0.993791
0.993397
0.992968
0.992513
0.992034
0.991527
0.991004
0.990463
0.989906
0.989341
0.988769
0.988192
0.987614
0.987037
0.986463
0.985896
0.985337
0.984784
0.984244
0.983711
0.983195
0.98269
0.982201
0.981722
0.981258
0.98081
0.980373
0.979954
0.979544
0.979152
0.978774
0.978408
0.978058
0.977714
0.977385
0.977067
0.97676
0.976464
0.976187
0.975922
0.975674
0.975444
0.975239
0.975053
0.974893
0.974759
0.974658
0.974591
0.974559
0.974571
0.974624
0.974726
0.974883
0.975092
0.975359
0.975685
0.97607
0.976519
0.977026
0.977587
0.978197
0.978848
0.979526
0.980213
0.980887
0.981518
0.982069
0.9825
0.982753
0.982768
0.982463
0.981749
0.980514
0.978633
0.975943
0.972271
0.967393
0.961077
0.953062
0.943079
0.930845
0.915828
0.897148
0.874576
0.844955
0.802306
0.727251
0.569829
0.273823
0.663019
0.929928
0.963633
0.972278
0.976453
0.979184
0.981556
0.984115
0.987107
0.990513
0.99377
0.996124
0.997619
0.998521
0.998969
0.998995
0.998611
0.997863
0.996834
0.995635
0.994375
0.993157
0.992066
0.991162
0.990476
0.990026
0.989805
0.989771
0.98987
0.990079
0.99038
0.99075
0.991168
0.991615
0.992072
0.992526
0.992962
0.993371
0.993748
0.994081
0.994371
0.994615
0.994807
0.99495
0.995043
0.995088
0.995085
0.995037
0.994944
0.994809
0.994634
0.994422
0.994176
0.993896
0.993587
0.99325
0.992892
0.992513
0.992115
0.991704
0.991282
0.99085
0.990413
0.989973
0.989531
0.989091
0.988655
0.98822
0.987795
0.987375
0.986966
0.986566
0.986174
0.985794
0.985422
0.985066
0.984717
0.984381
0.984056
0.983739
0.983435
0.983146
0.982863
0.982594
0.982335
0.98208
0.981834
0.981599
0.981376
0.981159
0.980958
0.980766
0.980588
0.980427
0.980277
0.980151
0.980043
0.979956
0.979892
0.979857
0.97985
0.979873
0.979925
0.980018
0.980141
0.980307
0.980506
0.980745
0.981019
0.981327
0.981663
0.98202
0.982386
0.982751
0.983097
0.983399
0.983633
0.983762
0.983748
0.983544
0.983089
0.982313
0.981133
0.979454
0.977164
0.974128
0.970194
0.965186
0.958906
0.951136
0.941635
0.93012
0.916206
0.899291
0.878106
0.850429
0.811259
0.742668
0.591647
0.288758
0.766353
0.945167
0.967877
0.97437
0.977624
0.979985
0.982241
0.984827
0.987979
0.991633
0.995037
0.997218
0.998449
0.999114
0.999321
0.999027
0.998211
0.996931
0.995305
0.993487
0.991634
0.989883
0.988341
0.987083
0.986149
0.985551
0.985278
0.985251
0.985417
0.985751
0.986219
0.986791
0.987436
0.988124
0.988833
0.989542
0.990233
0.990893
0.99151
0.992076
0.992587
0.993042
0.993438
0.993771
0.994048
0.994266
0.994429
0.994539
0.994598
0.994611
0.994579
0.994506
0.994394
0.994248
0.99407
0.993863
0.993631
0.993376
0.993103
0.992813
0.99251
0.992196
0.991873
0.991545
0.991215
0.990882
0.99055
0.990219
0.989892
0.98957
0.989254
0.988944
0.98864
0.988345
0.988058
0.987779
0.98751
0.987246
0.986991
0.986745
0.986509
0.986282
0.98606
0.985849
0.985642
0.985445
0.98525
0.985064
0.984886
0.984713
0.984548
0.984393
0.984247
0.98411
0.983986
0.983874
0.983775
0.983691
0.983623
0.983571
0.983537
0.983524
0.983533
0.983562
0.983612
0.983683
0.983774
0.983887
0.984016
0.984157
0.984303
0.98445
0.984584
0.984692
0.984756
0.984758
0.98467
0.984462
0.984093
0.983518
0.982686
0.981532
0.97998
0.977949
0.97534
0.972032
0.9679
0.962791
0.956534
0.94894
0.939783
0.928781
0.915543
0.899465
0.879508
0.853593
0.81667
0.752623
0.608031
0.303525
0.838863
0.954488
0.970781
0.975867
0.97858
0.980599
0.982728
0.985361
0.988681
0.992599
0.996141
0.998093
0.999049
0.999506
0.999468
0.998791
0.997423
0.995452
0.993061
0.990463
0.987875
0.985473
0.983393
0.981726
0.980512
0.979764
0.979455
0.979455
0.979727
0.980233
0.980925
0.981759
0.982693
0.983687
0.984709
0.985731
0.98673
0.987687
0.988589
0.989428
0.990199
0.990895
0.991517
0.992065
0.992542
0.992947
0.993289
0.993566
0.993782
0.993945
0.994056
0.994122
0.99414
0.99412
0.994064
0.993976
0.99386
0.993716
0.993553
0.993367
0.993169
0.992955
0.992731
0.992499
0.992259
0.992017
0.99177
0.991524
0.991279
0.991035
0.990793
0.990557
0.990324
0.990094
0.989872
0.989653
0.989441
0.989234
0.989034
0.988841
0.988652
0.988468
0.988293
0.988122
0.987956
0.987794
0.987637
0.987482
0.987334
0.987188
0.987049
0.986916
0.986787
0.986663
0.98655
0.986442
0.986341
0.986251
0.986169
0.986095
0.986034
0.985985
0.985943
0.985916
0.985897
0.985886
0.98588
0.985883
0.985884
0.985882
0.985869
0.985837
0.985773
0.985669
0.985501
0.985251
0.984894
0.984402
0.983738
0.982859
0.981715
0.980253
0.978401
0.976084
0.973218
0.969693
0.965402
0.960209
0.953967
0.946498
0.93759
0.926963
0.914224
0.898778
0.879599
0.854683
0.819239
0.758051
0.619628
0.318339
0.873759
0.963297
0.972841
0.97694
0.979253
0.981116
0.983081
0.985731
0.989224
0.993416
0.997098
0.998768
0.999459
0.999748
0.999449
0.998287
0.996201
0.993342
0.989984
0.986427
0.982949
0.979776
0.977076
0.974952
0.973445
0.972558
0.972248
0.972309
0.972738
0.973476
0.974461
0.975631
0.976928
0.978299
0.979702
0.981101
0.982463
0.98377
0.985008
0.986159
0.987224
0.988196
0.989074
0.98986
0.990558
0.991169
0.9917
0.992155
0.992539
0.992857
0.993115
0.993317
0.993467
0.993571
0.993634
0.993657
0.99365
0.993611
0.993547
0.993459
0.99335
0.993226
0.993088
0.99294
0.99278
0.992614
0.992442
0.992266
0.992088
0.991909
0.99173
0.991551
0.991372
0.991198
0.991026
0.990854
0.990689
0.990524
0.990366
0.990207
0.990056
0.989906
0.989761
0.98962
0.989484
0.989346
0.989211
0.98908
0.988949
0.988822
0.988694
0.988571
0.98845
0.988333
0.988218
0.988107
0.987998
0.987894
0.987795
0.987699
0.987605
0.987517
0.987429
0.987345
0.987259
0.987174
0.987083
0.986984
0.986875
0.986747
0.986595
0.986406
0.986174
0.985883
0.985516
0.985052
0.984471
0.983739
0.982824
0.981688
0.980285
0.978562
0.976459
0.973909
0.970829
0.967127
0.962707
0.957445
0.951208
0.943829
0.935105
0.924754
0.912393
0.897426
0.878846
0.854709
0.820397
0.76133
0.627374
0.329204
0.89598
0.966461
0.974332
0.97769
0.979698
0.981435
0.983394
0.985948
0.989609
0.994079
0.997909
0.99926
0.99972
0.999884
0.999282
0.99749
0.994473
0.990494
0.985945
0.981232
0.976707
0.97265
0.969255
0.966637
0.964836
0.96384
0.963582
0.963761
0.964418
0.965472
0.966838
0.96843
0.970172
0.972001
0.973857
0.975697
0.977486
0.979197
0.980812
0.982317
0.983711
0.984987
0.986147
0.987193
0.98813
0.988962
0.989699
0.99034
0.990899
0.991379
0.991787
0.99213
0.992413
0.992641
0.99282
0.992955
0.993051
0.993112
0.993141
0.993144
0.993121
0.993079
0.993018
0.992942
0.992854
0.992754
0.992645
0.99253
0.99241
0.992283
0.992154
0.992026
0.991894
0.991762
0.991629
0.991497
0.991365
0.991235
0.991104
0.990976
0.99085
0.990727
0.990604
0.990483
0.990363
0.990243
0.990122
0.990004
0.989881
0.989764
0.989642
0.989521
0.9894
0.989282
0.989161
0.989041
0.98892
0.988797
0.988677
0.988551
0.988426
0.988298
0.988163
0.988024
0.987878
0.987722
0.987551
0.987362
0.987151
0.98691
0.986632
0.986309
0.985928
0.985474
0.98493
0.984281
0.983501
0.982563
0.981434
0.980079
0.978454
0.976513
0.974201
0.971451
0.968192
0.964346
0.959818
0.954497
0.94826
0.940945
0.932355
0.922216
0.910144
0.895551
0.877442
0.853915
0.820481
0.763008
0.632375
0.336858
0.911555
0.96886
0.975525
0.978173
0.979922
0.981568
0.983551
0.98613
0.989834
0.994581
0.99858
0.999598
0.999871
0.999953
0.998973
0.996356
0.992153
0.98679
0.980814
0.974747
0.969022
0.96397
0.959817
0.956687
0.954618
0.953568
0.953306
0.953688
0.954684
0.956174
0.958041
0.960174
0.962472
0.964852
0.967245
0.969598
0.971872
0.974036
0.976073
0.977969
0.979721
0.981326
0.982788
0.984111
0.985302
0.986368
0.987317
0.988158
0.988897
0.989544
0.990108
0.990593
0.991008
0.99136
0.991655
0.991899
0.992096
0.992252
0.992372
0.992459
0.992517
0.99255
0.992561
0.992551
0.992526
0.992488
0.992435
0.992372
0.992302
0.992224
0.992139
0.992048
0.991955
0.991857
0.991757
0.991656
0.991552
0.991446
0.99134
0.991234
0.991125
0.991016
0.990909
0.990802
0.990693
0.990581
0.99047
0.990355
0.99024
0.990121
0.99
0.989878
0.989751
0.989623
0.989492
0.989358
0.989218
0.989075
0.988928
0.988773
0.988614
0.988443
0.988264
0.988074
0.987865
0.987641
0.987395
0.987123
0.986819
0.986475
0.986084
0.985638
0.985122
0.984522
0.983829
0.983015
0.982061
0.980941
0.979626
0.978079
0.976266
0.974136
0.971644
0.968728
0.965322
0.961352
0.956734
0.951363
0.94512
0.937856
0.929367
0.91939
0.907547
0.893248
0.875517
0.85248
0.819736
0.763476
0.635316
0.342
0.922914
0.970579
0.976206
0.97843
0.979953
0.981504
0.983525
0.98626
0.989928
0.994922
0.999122
0.999811
0.999949
0.999984
0.998511
0.99483
0.989147
0.982118
0.974472
0.966855
0.959784
0.95364
0.948681
0.945043
0.942751
0.941735
0.941528
0.942226
0.943683
0.945738
0.948231
0.951019
0.953976
0.956999
0.960006
0.962936
0.965747
0.968405
0.970894
0.973208
0.975339
0.97729
0.979067
0.980677
0.982129
0.983434
0.984601
0.985642
0.986565
0.987381
0.988098
0.988728
0.989277
0.989752
0.990162
0.990514
0.990808
0.991057
0.991262
0.991429
0.991565
0.991667
0.991744
0.991799
0.991831
0.991846
0.991845
0.991828
0.991802
0.991763
0.991717
0.99166
0.991598
0.991528
0.991456
0.991377
0.991294
0.991208
0.991119
0.991027
0.990932
0.990836
0.990737
0.990635
0.99053
0.990424
0.990313
0.9902
0.990083
0.989961
0.989834
0.989702
0.989567
0.989426
0.989281
0.989128
0.988968
0.988801
0.988625
0.98844
0.988242
0.988032
0.987805
0.987562
0.987298
0.987006
0.98669
0.986338
0.985947
0.985509
0.985015
0.984456
0.983818
0.983092
0.982257
0.981297
0.98019
0.97891
0.977432
0.975723
0.973744
0.971454
0.968807
0.965749
0.962215
0.958143
0.953449
0.948034
0.941785
0.934555
0.926149
0.916303
0.904641
0.890585
0.873167
0.850529
0.818348
0.763017
0.636674
0.345169
0.931382
0.971788
0.976561
0.978471
0.979777
0.981241
0.983299
0.986199
0.990014
0.99509
0.999534
0.999929
0.999985
0.999996
0.99788
0.992845
0.985364
0.976379
0.966825
0.957477
0.948925
0.941599
0.935795
0.931668
0.929232
0.92837
0.92842
0.929584
0.931659
0.934424
0.937678
0.941237
0.944946
0.948685
0.952361
0.955913
0.959289
0.962466
0.965423
0.968161
0.970677
0.972976
0.975069
0.976965
0.978678
0.980221
0.981604
0.982841
0.983945
0.984929
0.985799
0.986568
0.987246
0.987841
0.988362
0.988813
0.989207
0.989542
0.989832
0.990075
0.990282
0.99045
0.990589
0.9907
0.990787
0.990849
0.990894
0.990919
0.990931
0.990928
0.990913
0.990885
0.99085
0.990803
0.990751
0.990691
0.990625
0.990552
0.990474
0.990391
0.990306
0.990213
0.990117
0.99002
0.989915
0.989809
0.989695
0.989577
0.989453
0.989323
0.989185
0.989043
0.988892
0.988737
0.988571
0.988398
0.988215
0.98802
0.987814
0.987593
0.987358
0.987107
0.986833
0.986539
0.986218
0.985866
0.985479
0.985054
0.984581
0.984053
0.983464
0.982802
0.982054
0.981207
0.980248
0.979157
0.977914
0.976497
0.974875
0.973019
0.970897
0.968468
0.96569
0.962507
0.958871
0.954712
0.949953
0.944502
0.93825
0.93105
0.92271
0.912972
0.901463
0.887609
0.870453
0.848162
0.81644
0.761829
0.636813
0.346796
0.937768
0.972614
0.976672
0.978283
0.9794
0.980761
0.982857
0.985938
0.990052
0.995122
0.999819
0.999982
0.999996
0.999999
0.997054
0.99034
0.98072
0.969494
0.957817
0.946576
0.936418
0.92782
0.921132
0.916554
0.914095
0.913417
0.913926
0.915802
0.918746
0.922455
0.926657
0.931127
0.935689
0.94021
0.944596
0.948783
0.952732
0.956421
0.959838
0.962986
0.965871
0.968504
0.970897
0.973065
0.975023
0.976792
0.97838
0.979805
0.981078
0.982217
0.983233
0.984139
0.984938
0.985649
0.986274
0.986824
0.987306
0.987729
0.988093
0.988409
0.988679
0.98891
0.989105
0.989269
0.989401
0.98951
0.989592
0.989655
0.9897
0.989726
0.989737
0.989735
0.989721
0.989694
0.989657
0.989611
0.989556
0.989492
0.989421
0.989344
0.989261
0.989171
0.989074
0.988971
0.988864
0.988753
0.988631
0.988504
0.988369
0.988228
0.988079
0.987919
0.987753
0.987576
0.987389
0.987192
0.986981
0.986758
0.986519
0.986263
0.985989
0.985695
0.985376
0.985031
0.984653
0.98424
0.983789
0.983291
0.982742
0.98213
0.981452
0.980693
0.979845
0.978892
0.977821
0.97661
0.975246
0.973703
0.971954
0.969974
0.967727
0.965178
0.962286
0.959005
0.955279
0.951045
0.946237
0.940759
0.934507
0.927329
0.919052
0.909409
0.898032
0.884356
0.867432
0.845439
0.814114
0.760069
0.636004
0.347211
0.942597
0.973112
0.976547
0.977834
0.978813
0.980057
0.982177
0.985451
0.989889
0.995151
0.999975
0.999999
1
1
0.996005
0.987251
0.975148
0.961418
0.947433
0.934165
0.922284
0.912311
0.904685
0.89971
0.897402
0.896619
0.897942
0.900941
0.905149
0.91013
0.915531
0.92108
0.926591
0.931939
0.93704
0.941851
0.946339
0.950504
0.954338
0.957858
0.961075
0.964006
0.966666
0.969076
0.971253
0.973221
0.974993
0.976586
0.978016
0.979297
0.980444
0.981468
0.982381
0.983194
0.983916
0.984555
0.985119
0.985616
0.986052
0.986433
0.986764
0.98705
0.987295
0.987505
0.98768
0.987825
0.987943
0.988039
0.988111
0.988161
0.988196
0.988212
0.988214
0.988202
0.988175
0.988139
0.988091
0.988032
0.987962
0.987888
0.987802
0.987708
0.987607
0.9875
0.987384
0.987262
0.987132
0.986991
0.986841
0.986685
0.986516
0.986339
0.986153
0.985953
0.985742
0.985517
0.985278
0.985022
0.98475
0.984458
0.984144
0.983806
0.983441
0.983043
0.98261
0.98214
0.981625
0.98106
0.980436
0.97975
0.978987
0.978141
0.9772
0.976149
0.974975
0.973661
0.97219
0.970535
0.968673
0.966584
0.96423
0.961579
0.958591
0.955226
0.951427
0.947137
0.942289
0.936789
0.930538
0.923393
0.91517
0.90561
0.894358
0.880848
0.864138
0.842419
0.811444
0.757846
0.634449
0.346668
0.946203
0.973356
0.976239
0.977218
0.978005
0.979103
0.981237
0.984714
0.98952
0.995177
1
0.999999
0.999998
0.999999
0.994709
0.983527
0.968601
0.952146
0.935722
0.920334
0.906624
0.895127
0.886435
0.881121
0.879222
0.879126
0.881647
0.886129
0.891898
0.898364
0.905086
0.911766
0.918222
0.92435
0.930105
0.935456
0.940408
0.944965
0.949143
0.952963
0.956446
0.959615
0.962492
0.965099
0.967456
0.969589
0.971511
0.973242
0.974801
0.976205
0.97746
0.978588
0.979597
0.980499
0.981301
0.982018
0.982654
0.983217
0.983716
0.984153
0.984536
0.984868
0.985158
0.985407
0.985617
0.985797
0.985943
0.986063
0.986158
0.986228
0.986278
0.986307
0.986321
0.986317
0.986299
0.986265
0.986217
0.986162
0.98609
0.986011
0.985919
0.985821
0.98571
0.985593
0.985465
0.98533
0.985182
0.985026
0.98486
0.984684
0.984497
0.984296
0.984085
0.983861
0.983622
0.983368
0.983097
0.98281
0.982502
0.98217
0.981818
0.981433
0.981021
0.980576
0.980089
0.979562
0.978987
0.978354
0.977664
0.976903
0.976063
0.975137
0.974109
0.97297
0.971704
0.970296
0.968727
0.966975
0.96502
0.962834
0.960389
0.957652
0.954584
0.951149
0.947293
0.942958
0.938082
0.932576
0.926333
0.919219
0.911048
0.901579
0.890446
0.877098
0.860597
0.839141
0.808479
0.755253
0.632296
0.34537
0.948828
0.97339
0.97577
0.976418
0.976965
0.977885
0.98001
0.983699
0.988922
0.995084
1
1
0.999998
0.999997
0.99315
0.979118
0.961056
0.941722
0.92281
0.905281
0.889645
0.876387
0.866329
0.860716
0.858445
0.859943
0.864881
0.871908
0.879916
0.888177
0.896274
0.904003
0.911253
0.917994
0.924227
0.929963
0.935227
0.94005
0.944456
0.948475
0.952137
0.955465
0.958487
0.961227
0.963713
0.965961
0.967991
0.969829
0.971483
0.972976
0.974318
0.975525
0.976609
0.977581
0.978453
0.979227
0.97992
0.980536
0.981084
0.981566
0.981989
0.982361
0.982685
0.982965
0.983205
0.983409
0.983576
0.983714
0.983826
0.98391
0.983972
0.98401
0.984028
0.984027
0.984011
0.983977
0.983927
0.983865
0.983789
0.983702
0.983601
0.983488
0.983366
0.983233
0.98309
0.982939
0.982772
0.982597
0.98241
0.98221
0.982
0.981775
0.981537
0.981284
0.981015
0.980729
0.980427
0.980103
0.979756
0.979387
0.97899
0.978565
0.978104
0.977608
0.97707
0.976488
0.975853
0.975159
0.974403
0.973573
0.972663
0.97166
0.970555
0.969338
0.967991
0.966499
0.964844
0.963009
0.960972
0.958706
0.956182
0.953377
0.950247
0.946756
0.942857
0.938493
0.933599
0.92809
0.921865
0.914789
0.906683
0.897303
0.886292
0.873108
0.856818
0.835624
0.805264
0.752353
0.629656
0.343465
0.950622
0.973241
0.975146
0.975375
0.975572
0.976384
0.978472
0.982372
0.988062
0.994848
0.999997
0.999997
0.999998
0.999996
0.991307
0.973981
0.952513
0.930256
0.908945
0.889386
0.87179
0.856425
0.844272
0.838113
0.836084
0.841174
0.850399
0.86097
0.871419
0.881233
0.890309
0.898663
0.90633
0.913356
0.919789
0.925673
0.931052
0.935966
0.940451
0.944539
0.948266
0.951663
0.954747
0.957549
0.960091
0.962402
0.964495
0.966387
0.968098
0.969645
0.971041
0.9723
0.973433
0.974452
0.975367
0.976186
0.976919
0.977571
0.978153
0.978668
0.979121
0.979518
0.979867
0.980168
0.980424
0.980645
0.980827
0.980976
0.981096
0.981185
0.98125
0.981291
0.981308
0.981306
0.981284
0.981246
0.981187
0.981115
0.981029
0.980927
0.980813
0.980684
0.980545
0.980393
0.980231
0.980057
0.979868
0.979669
0.979458
0.979232
0.978993
0.978741
0.978472
0.978189
0.977889
0.97757
0.97723
0.97687
0.976485
0.976074
0.975636
0.975164
0.974658
0.974114
0.973524
0.972888
0.972196
0.971444
0.970626
0.969733
0.968758
0.967687
0.966513
0.965223
0.963803
0.962238
0.960511
0.958605
0.956494
0.954165
0.951581
0.948717
0.945539
0.942008
0.938079
0.933697
0.928794
0.923298
0.917102
0.910075
0.902041
0.892763
0.881889
0.868877
0.852813
0.831887
0.801831
0.749188
0.626612
0.34106
0.951672
0.972942
0.974397
0.974133
0.973864
0.974592
0.976593
0.980695
0.9869
0.994462
1
1
0.999998
1
0.989164
0.968068
0.943005
0.917957
0.894563
0.873363
0.854032
0.83629
0.820456
0.808212
0.81322
0.830262
0.845666
0.857578
0.868522
0.878624
0.887968
0.896257
0.903815
0.910703
0.917
0.922759
0.928024
0.932837
0.937238
0.941257
0.944931
0.948279
0.951338
0.954116
0.956648
0.958951
0.961046
0.962947
0.964671
0.966235
0.967645
0.968923
0.970076
0.971116
0.972051
0.97289
0.973641
0.974315
0.974911
0.975443
0.975911
0.976322
0.976679
0.976989
0.977255
0.977478
0.977665
0.977816
0.977935
0.978024
0.978085
0.978119
0.978129
0.978118
0.978086
0.978032
0.977961
0.977874
0.97777
0.977651
0.977517
0.977367
0.977206
0.97703
0.976843