/*--------------------------------*- C++ -*----------------------------------*\
  =========                 |
  \\      /  F ield         | OpenFOAM: The Open Source CFD Toolbox
   \\    /   O peration     | Website:  https://openfoam.org
    \\  /    A nd           | Version:  13
     \\/     M anipulation  |
\*---------------------------------------------------------------------------*/
FoamFile
{
    format      ascii;
    class       volScalarField;
    location    "214.831886";
    object      T;
}
// * * * * * * * * * * * * * * * * * * * * * * * * * * * * * * * * * * * * * //

dimensions      [0 0 0 1 0 0 0];

internalField   nonuniform List<scalar> 
5712
(
1135.17
1135.07
1134.89
1134.73
1134.46
1134.3
1133.86
1133.73
1133.98
1133.82
1134.45
1134.29
1134.79
1134.64
1135.04
1134.93
1134.33
1134.12
1134.05
1133.76
1133.61
1133.34
1133.35
1133
1135.55
1136.17
1135.44
1136.02
1135.29
1135.88
1135.11
1135.67
1134.68
1135
1134.38
1134.79
1135.52
1135.17
1133.7
1133.18
1133.42
1133.03
1133.04
1132.6
1132.7
1132.37
1134.32
1133.78
1134.01
1133.6
1134.82
1134.3
1136.88
1137.3
1136.58
1137.02
1136.58
1137.11
1136.24
1136.72
1136.15
1136.87
1135.62
1136.28
1135.21
1135.86
1134.74
1135.41
1134.18
1134.09
1133.73
1133.68
1133.22
1133.1
1132.86
1132.74
1134.57
1134.69
1135.1
1135.12
1133.35
1133.35
1133
1133.07
1132.54
1132.44
1132.23
1132.18
1134.13
1134.34
1133.75
1134.05
1135.39
1136.19
1135.69
1136.59
1135.96
1136.78
1136.14
1137.08
1134.91
1135.69
1135.33
1136.21
1134.5
1135.26
1135.04
1135.9
1137.88
1138.8
1138.03
1138.95
1137.61
1138.46
1137.88
1138.76
1137.14
1137.8
1137.63
1138.35
1134.82
1133.68
1135.85
1136.63
1137.47
1133.84
1135.04
1136.27
1137.1
1138.01
1133.55
1134.62
1135.66
1136.64
1137.6
1139.65
1140.07
1140.12
1140.49
1139.22
1139.7
1139.83
1140.23
1138.48
1139.01
1139.33
1139.81
1134.1
1134.53
1135.42
1136
1136.63
1137.24
1137.59
1138.2
1138.87
1139.47
1133.74
1134.09
1134.94
1135.56
1136.07
1136.77
1137.19
1137.94
1138.6
1139.39
1134.39
1135.08
1133.89
1134.5
1133.21
1133.41
1132.77
1132.88
1135.09
1135.9
1135.57
1136.44
1133.47
1134.08
1133.2
1133.78
1132.41
1132.51
1132.15
1132.23
1134.64
1135.47
1134.37
1135.18
1136.44
1137.43
1138.12
1139.32
1136.83
1137.87
1138.38
1139.55
1136.08
1137.04
1137.87
1139.05
1135.74
1136.71
1137.51
1138.63
1140.19
1140.36
1140.7
1140.28
1140.34
1140.65
1139.91
1140.13
1140.49
1140.07
1140.15
1140.48
1139.35
1139.64
1140.04
1139.75
1139.89
1140.26
1135.06
1135.67
1136.32
1136.63
1137.16
1137.73
1137.82
1138.27
1138.77
1138.67
1139.05
1139.52
1139.5
1139.69
1140.13
1134.58
1135.26
1135.99
1136.37
1137.08
1137.8
1137.6
1138.22
1138.86
1138.58
1139.05
1139.61
1139.49
1139.74
1140.24
1132.32
1132.1
1132.12
1131.84
1132.9
1132.63
1132.68
1132.34
1132.19
1131.74
1132.14
1131.72
1132.06
1131.66
1131.97
1131.59
1131.66
1131.85
1131.54
1131.76
1131.58
1131.42
1131.62
1131.36
1132.07
1131.79
1131.53
1131.29
1131.36
1131.13
1131.33
1131.1
1131.28
1130.87
1131.35
1130.97
1131.22
1130.8
1131.24
1130.85
1131.17
1130.71
1131.07
1130.65
1130.99
1130.62
1130.78
1130.48
1131.8
1131.61
1131.55
1131.34
1132.42
1132.25
1132.12
1131.94
1131.15
1130.9
1131.37
1131.14
1131.31
1131.1
1131.06
1130.89
1131.84
1131.67
1131.57
1131.44
1130.94
1130.69
1130.72
1130.5
1130.82
1130.46
1130.61
1130.39
1131
1130.61
1130.82
1130.57
1130.64
1130.33
1130.42
1130.24
1130.45
1130.18
1130.26
1130.11
1131.29
1131.49
1130.91
1131.12
1131.29
1131.49
1130.89
1131.1
1131.28
1131.47
1130.84
1131.03
1131.99
1132.71
1131.53
1131.17
1130.79
1132.86
1132.14
1131.71
1131.36
1130.96
1132.58
1131.87
1131.36
1131.02
1130.74
1131.83
1132.29
1131.46
1131.92
1131.8
1132.25
1131.41
1131.84
1131.73
1132.16
1131.3
1131.71
1133.05
1133.41
1132.29
1132.65
1131.85
1132.23
1131.52
1131.9
1131.14
1131.52
1132.7
1132.91
1131.97
1132.18
1131.48
1131.73
1131.16
1131.48
1130.92
1131.31
1131.57
1131.64
1131.29
1131.28
1132.23
1132.28
1131.89
1131.84
1130.9
1130.99
1131.14
1131.3
1131.07
1131
1130.86
1130.77
1131.63
1131.52
1131.39
1131.26
1130.7
1130.74
1130.52
1130.54
1130.66
1130.86
1130.55
1130.86
1130.88
1131.14
1130.72
1131.08
1130.48
1130.63
1130.4
1130.67
1130.33
1130.46
1130.26
1130.5
1132.93
1133.56
1134.15
1132.7
1133.41
1134.01
1132.84
1133.48
1134.09
1132.6
1133.31
1133.93
1132.72
1133.34
1133.96
1132.43
1133.18
1133.84
1133.89
1134.5
1135.15
1133.15
1133.78
1134.45
1132.74
1133.39
1134.07
1132.44
1133.1
1133.76
1132.24
1133.04
1133.76
1133.29
1133.95
1134.69
1132.59
1133.26
1134.01
1132.2
1132.91
1133.68
1132.02
1132.77
1133.55
1132.06
1132.89
1133.69
1130.7
1130.97
1131.68
1133
1130.82
1131.11
1131.84
1133.17
1130.65
1130.93
1131.64
1132.97
1130.73
1131.03
1131.78
1133.11
1130.58
1130.88
1131.56
1132.85
1130.55
1130.88
1131.62
1132.93
1130.58
1130.94
1131.73
1133.08
1130.5
1130.91
1131.73
1133.09
1130.42
1130.78
1131.49
1132.8
1130.45
1130.82
1131.48
1132.65
1130.54
1130.85
1131.5
1132.71
1130.57
1130.91
1131.52
1132.63
1130.33
1130.72
1131.49
1132.85
1130.34
1130.75
1131.44
1132.64
1130.24
1130.66
1131.46
1132.81
1130.24
1130.68
1131.4
1132.59
1130.72
1130.96
1131.61
1132.85
1130.89
1131.09
1131.64
1132.72
1130.71
1130.95
1131.59
1132.82
1130.88
1131.09
1131.64
1132.71
1130.69
1130.95
1131.57
1132.76
1130.85
1131.08
1131.63
1132.69
1130.68
1130.96
1131.55
1132.68
1130.81
1131.07
1131.62
1132.64
1130.7
1131
1131.56
1132.59
1131.15
1131.31
1131.81
1132.58
1131.44
1131.58
1132.09
1132.81
1131.12
1131.3
1131.8
1132.57
1131.4
1131.57
1132.08
1132.81
1131.06
1131.27
1131.78
1132.56
1131.35
1131.54
1132.07
1132.79
1130.97
1131.22
1131.74
1132.52
1131.27
1131.5
1132.04
1132.78
1130.86
1131.16
1131.7
1132.49
1131.17
1131.45
1132.02
1132.76
1130.65
1131.04
1131.65
1132.46
1130.93
1131.31
1131.93
1132.7
1130.76
1131.1
1131.68
1132.48
1131.05
1131.38
1131.97
1132.73
1130.56
1130.98
1131.62
1132.45
1130.82
1131.25
1131.89
1132.67
1130.47
1130.93
1131.58
1132.42
1130.72
1131.18
1131.85
1132.64
1135
1136.62
1137.99
1139.11
1139.98
1135.1
1136.7
1138.07
1139.19
1140.06
1134.99
1136.61
1137.99
1139.11
1139.98
1135.08
1136.69
1138.06
1139.18
1140.05
1134.97
1136.6
1137.98
1139.11
1139.97
1135.01
1136.62
1138
1139.13
1139.99
1135.05
1136.67
1138.05
1139.17
1140.04
1135.03
1136.65
1138.04
1139.16
1140.03
1134.95
1136.59
1137.98
1139.1
1139.97
1135.03
1136.71
1138.1
1139.23
1140.09
1134.97
1136.62
1138.01
1139.13
1140
1135.06
1136.74
1138.13
1139.25
1140.12
1134.95
1136.59
1137.98
1139.11
1139.97
1135.04
1136.72
1138.12
1139.24
1140.11
1134.93
1136.58
1137.97
1139.1
1139.96
1135.04
1136.73
1138.12
1139.25
1140.12
1135.01
1136.65
1138.03
1139.16
1140.02
1135.13
1136.8
1138.18
1139.3
1140.16
1135.01
1136.66
1138.04
1139.16
1140.02
1135.13
1136.8
1138.18
1139.3
1140.16
1135.01
1136.67
1138.05
1139.18
1140.04
1135.13
1136.81
1138.19
1139.31
1140.17
1135.05
1136.72
1138.11
1139.23
1140.1
1135.15
1136.83
1138.22
1139.34
1140.2
1135.12
1136.8
1138.19
1139.31
1140.17
1142.08
1142.34
1141.96
1142.23
1141.74
1142.04
1141.47
1141.82
1141.19
1141.6
1140.77
1141.24
1140.99
1141.44
1140.55
1141
1140.32
1140.74
1144.98
1148.16
1150.83
1152.91
1154.34
1144.94
1148.14
1150.84
1152.93
1154.38
1144.93
1148.13
1150.82
1152.9
1154.33
1144.89
1148.12
1150.82
1152.93
1154.37
1144.82
1148.07
1150.78
1152.87
1154.3
1144.78
1148.06
1150.79
1152.9
1154.35
1144.68
1147.99
1150.72
1152.83
1154.26
1144.65
1147.98
1150.73
1152.86
1154.31
1144.51
1147.88
1150.64
1152.77
1154.21
1144.51
1147.89
1150.67
1152.81
1154.27
1144.15
1147.61
1150.44
1152.61
1154.07
1144.18
1147.65
1150.49
1152.67
1154.14
1144.33
1147.75
1150.55
1152.7
1154.15
1144.36
1147.78
1150.59
1152.75
1154.22
1143.96
1147.47
1150.33
1152.52
1153.99
1143.99
1147.5
1150.37
1152.57
1154.05
1143.78
1147.32
1150.22
1152.43
1153.91
1143.77
1147.34
1150.24
1152.46
1153.96
1131.66
1132.08
1132.43
1131.96
1132.56
1132.5
1132.48
1132.39
1132.62
1132.5
1133.17
1133.03
1133.46
1133.31
1133.05
1132.92
1132.88
1132.79
1132.85
1132.78
1131.98
1131.87
1133.08
1133.57
1133.72
1133.77
1133.32
1133.13
1133.7
1133.02
1134.18
1134.92
1133.15
1133.36
1133.93
1133.3
1133.55
1133.59
1132.66
1132.61
1132.91
1132.8
1132.66
1132.54
1132.67
1132.85
1133.49
1133.36
1133.13
1133.01
1132.18
1132.01
1132.29
1132.15
1132.34
1132.39
1132.71
1133.13
1132.7
1131.23
1130.84
1130.68
1130.7
1130.9
1131.31
1130.99
1130.85
1130.9
1131.17
1132.71
1132.54
1132.52
1132.67
1132.99
1133.21
1133.05
1133.05
1133.21
1133.54
1133.36
1133.2
1133.19
1133.34
1133.66
1133.41
1133.26
1133.25
1133.41
1133.74
1132.96
1132.79
1132.78
1132.93
1133.25
1132.31
1131.81
1131.55
1131.49
1131.64
1132.83
1132.29
1132.01
1131.96
1132.13
1132.44
1132.07
1131.87
1131.88
1132.13
1133.38
1132.87
1132.61
1132.58
1132.79
1134.14
1133.61
1133.35
1133.32
1133.53
1132.69
1132.42
1132.32
1132.39
1132.68
1132.83
1132.49
1132.32
1132.36
1132.62
1133.41
1133.09
1132.93
1132.97
1133.24
1132.87
1132.64
1132.56
1132.66
1132.95
1133.1
1132.84
1132.73
1132.82
1133.1
1133.18
1132.95
1132.88
1132.99
1133.28
1131.91
1131.48
1131.27
1131.24
1131.42
1132.09
1131.78
1131.63
1131.68
1131.95
1132.48
1132.24
1132.15
1132.25
1132.54
1132.39
1132.16
1132.1
1132.21
1132.51
1132.21
1131.96
1131.86
1131.95
1132.24
1132.11
1131.89
1131.81
1131.92
1132.22
1132.28
1132.08
1132.04
1132.17
1132.48
1132.46
1132.27
1132.23
1132.36
1132.67
1133.1
1132.91
1132.87
1133
1133.31
1132.99
1132.81
1132.79
1132.93
1133.25
1132.73
1132.52
1132.46
1132.57
1132.88
1132.62
1132.42
1132.38
1132.51
1132.82
1131.45
1131.05
1130.87
1130.88
1131.08
1131.49
1131.19
1131.06
1131.12
1131.39
1131.69
1131.34
1131.16
1131.18
1131.41
1131.69
1131.43
1131.33
1131.41
1131.7
1131.9
1131.66
1131.58
1131.68
1131.97
1131.89
1131.59
1131.45
1131.5
1131.77
1132.32
1132.11
1132.07
1132.2
1132.51
1132.76
1132.58
1132.55
1132.69
1133.01
1132.3
1132.08
1132.02
1132.14
1132.45
1131.94
1132.16
1131.96
1132.21
1131.39
1131.65
1131.38
1131.61
1131.98
1132.01
1132.22
1132.17
1131.4
1131.41
1131.64
1131.57
1132.52
1133.09
1132.72
1133.26
1132.52
1133.03
1132.76
1133.26
1132.77
1132.56
1132.65
1132.51
1132.96
1133.17
1132.51
1132.77
1132.4
1132.68
1131.95
1132.22
1131.8
1132.06
1133.05
1133.33
1132.89
1133.2
1133.47
1133.79
1133.6
1134.05
1133.76
1134.18
1133.57
1134.1
1133.77
1134.24
1133.48
1134.2
1133.61
1134.25
1133.89
1134.54
1134.27
1134.94
1132.18
1132.33
1132.3
1132.47
1131.46
1131.51
1131.58
1131.62
1132.99
1133.4
1132.88
1133.26
1132.48
1132.63
1132.72
1132.83
1131.76
1131.77
1131.98
1131.96
1133.17
1133.58
1133.43
1133.8
1133.7
1134.5
1134.38
1135.29
1133.63
1134.5
1134.26
1135.22
1133.88
1134.65
1134.54
1135.43
1134.15
1134.91
1134.77
1135.64
1133.64
1133.91
1134.14
1134.56
1133.6
1133.82
1134.22
1134.62
1133.53
1133.64
1134.35
1134.68
1132.16
1131.41
1132.89
1133.67
1134.67
1131.38
1132.09
1132.83
1133.65
1134.84
1131.45
1132.25
1133.17
1134.18
1135.22
1134.34
1134.53
1135.66
1136.05
1134.14
1134.33
1135.59
1135.97
1133.84
1134
1135.49
1135.88
1131.4
1131.5
1132.16
1132.28
1132.95
1133.07
1133.9
1134.07
1135.61
1136.03
1131.45
1131.55
1132.33
1132.59
1133.34
1133.67
1134.5
1134.9
1136.07
1136.58
1132.54
1132.99
1132.66
1133.12
1131.53
1131.57
1131.63
1131.64
1133.79
1134.46
1133.65
1134.27
1132.76
1133.29
1132.96
1133.53
1131.76
1131.8
1131.94
1131.99
1133.9
1134.64
1134.12
1134.91
1135.15
1136.01
1136.87
1137.96
1134.92
1135.76
1136.56
1137.58
1135.32
1136.21
1137.14
1138.26
1135.49
1136.43
1137.28
1138.38
1134.6
1134.76
1135.79
1135.81
1134.41
1134.59
1135.74
1135.74
1134.12
1134.38
1135.69
1135.7
1131.71
1132.09
1132.51
1132.87
1133.28
1133.59
1134.23
1134.52
1135.78
1135.77
1131.77
1132.17
1132.94
1133.32
1133.98
1134.25
1135.02
1135.14
1136.09
1136
1130.48
1130.46
1130.71
1130.61
1130.89
1130.87
1131.13
1131.03
1130.19
1129.98
1130.41
1130.19
1130.19
1130
1130.43
1130.23
1130.39
1130.19
1130.37
1130.21
1130.05
1130.24
1130.83
1131.09
1131.24
1131.5
1130.68
1130.98
1130.59
1130.85
1130.52
1130.79
1129.85
1129.77
1130.06
1129.97
1129.86
1129.76
1130.08
1129.95
1129.88
1129.74
1130.04
1129.87
1130.29
1130.1
1130.53
1130.29
1130.39
1130.37
1130.5
1130.45
1130.85
1130.84
1130.97
1130.94
1130.18
1130.11
1130.08
1130.05
1130.66
1130.56
1130.85
1130.71
1131.14
1131.07
1131.34
1131.24
1130.33
1130.21
1130.51
1130.34
1129.95
1129.79
1129.92
1129.84
1129.86
1129.74
1129.87
1129.8
1130.1
1129.9
1130.01
1129.9
1130.27
1130.04
1130.12
1129.99
1129.76
1129.8
1129.7
1129.76
1129.78
1129.82
1129.7
1129.76
1129.83
1129.86
1129.71
1129.77
1130.34
1130.8
1130.05
1129.85
1129.74
1130.8
1130.37
1130.07
1129.88
1129.79
1130.79
1130.34
1130.03
1129.86
1129.8
1129.95
1130.21
1129.93
1130.21
1129.95
1130.19
1129.92
1130.19
1129.95
1130.17
1129.9
1130.15
1130.81
1130.91
1130.37
1130.49
1130.1
1130.26
1129.93
1130.12
1129.89
1130.11
1130.76
1130.8
1130.32
1130.38
1130.04
1130.15
1129.9
1130.06
1129.89
1130.11
1130.3
1130.28
1130.39
1130.33
1130.77
1130.71
1130.88
1130.76
1130.11
1130.13
1130.03
1130.1
1130.54
1130.43
1130.69
1130.59
1131.03
1130.88
1131.2
1131.05
1130.23
1130.23
1130.36
1130.37
1129.97
1130.09
1129.98
1130.19
1129.91
1130.06
1129.92
1130.15
1130.06
1130.17
1130.05
1130.27
1130.18
1130.3
1130.15
1130.37
1130.53
1130.82
1130.62
1130.97
1130.49
1130.81
1130.59
1130.96
1130.45
1130.8
1130.54
1130.97
1131.12
1131.5
1130.73
1131.12
1130.51
1130.91
1130.39
1130.8
1130.51
1131.01
1130.97
1131.42
1130.58
1131.04
1130.4
1130.89
1130.39
1130.89
1130.55
1131.12
1129.94
1130.46
1131.33
1132.76
1130.12
1130.63
1131.52
1132.95
1129.93
1130.44
1131.31
1132.75
1130.1
1130.61
1131.49
1132.91
1129.92
1130.43
1131.26
1132.65
1130.03
1130.53
1131.37
1132.77
1130.22
1130.7
1131.56
1132.96
1130.37
1130.82
1131.67
1133.05
1129.97
1130.46
1131.27
1132.65
1130.06
1130.56
1131.29
1132.51
1129.94
1130.45
1131.22
1132.52
1130.04
1130.55
1131.27
1132.45
1130.04
1130.52
1131.35
1132.75
1130.1
1130.58
1131.32
1132.55
1130.14
1130.59
1131.41
1132.77
1130.16
1130.63
1131.36
1132.56
1129.88
1130.4
1131.22
1132.59
1129.96
1130.48
1131.22
1132.43
1129.89
1130.41
1131.22
1132.57
1129.98
1130.49
1131.24
1132.43
1129.92
1130.43
1131.22
1132.53
1130
1130.52
1131.25
1132.43
1129.97
1130.49
1131.23
1132.46
1130.03
1130.55
1131.26
1132.41
1130.05
1130.57
1131.27
1132.39
1130.16
1130.67
1131.37
1132.25
1130.41
1130.92
1131.64
1132.46
1130.16
1130.67
1131.37
1132.25
1130.41
1130.92
1131.64
1132.46
1130.16
1130.67
1131.38
1132.25
1130.42
1130.93
1131.65
1132.47
1130.16
1130.68
1131.38
1132.25
1130.42
1130.94
1131.66
1132.47
1130.18
1130.7
1131.39
1132.25
1130.43
1130.96
1131.68
1132.49
1130.26
1130.77
1131.45
1132.31
1130.49
1131.01
1131.72
1132.53
1130.21
1130.73
1131.42
1132.28
1130.45
1130.98
1131.69
1132.5
1130.32
1130.82
1131.5
1132.35
1130.55
1131.06
1131.76
1132.56
1130.39
1130.87
1131.54
1132.39
1130.63
1131.12
1131.81
1132.6
1134.86
1136.53
1137.94
1139.08
1139.95
1134.97
1136.62
1138.02
1139.16
1140.03
1134.86
1136.53
1137.94
1139.08
1139.95
1134.97
1136.62
1138.02
1139.15
1140.02
1134.85
1136.53
1137.94
1139.08
1139.95
1134.91
1136.56
1137.97
1139.1
1139.97
1134.98
1136.62
1138.02
1139.16
1140.02
1135
1136.63
1138.03
1139.16
1140.02
1134.86
1136.54
1137.94
1139.08
1139.95
1134.96
1136.66
1138.07
1139.21
1140.08
1134.87
1136.56
1137.97
1139.1
1139.98
1134.97
1136.68
1138.09
1139.23
1140.1
1134.89
1136.56
1137.96
1139.09
1139.96
1134.99
1136.69
1138.1
1139.23
1140.1
1134.9
1136.56
1137.96
1139.09
1139.96
1135.02
1136.72
1138.12
1139.25
1140.11
1134.87
1136.57
1137.98
1139.12
1139.99
1134.98
1136.71
1138.12
1139.26
1140.13
1134.87
1136.57
1137.99
1139.13
1140
1134.99
1136.71
1138.13
1139.26
1140.14
1134.89
1136.59
1138.01
1139.15
1140.02
1135
1136.73
1138.14
1139.28
1140.15
1134.94
1136.66
1138.07
1139.2
1140.07
1135.03
1136.76
1138.17
1139.31
1140.18
1135.02
1136.74
1138.15
1139.28
1140.15
1138.47
1138.77
1138.51
1138.82
1138.6
1138.92
1138.76
1139.07
1139.01
1139.28
1139.64
1139.99
1139.36
1139.66
1139.88
1140.27
1140.1
1140.5
1142.35
1146.29
1149.44
1151.8
1153.37
1142.27
1146.24
1149.43
1151.82
1153.41
1142.39
1146.31
1149.46
1151.82
1153.38
1142.32
1146.28
1149.45
1151.84
1153.42
1142.47
1146.37
1149.5
1151.85
1153.41
1142.39
1146.33
1149.49
1151.87
1153.45
1142.59
1146.45
1149.56
1151.9
1153.45
1142.51
1146.41
1149.54
1151.91
1153.48
1142.77
1146.57
1149.64
1151.96
1153.5
1142.65
1146.5
1149.61
1151.97
1153.53
1143.19
1146.86
1149.86
1152.13
1153.65
1143.11
1146.81
1149.84
1152.14
1153.68
1142.97
1146.71
1149.74
1152.04
1153.57
1142.86
1146.64
1149.71
1152.04
1153.6
1143.39
1147.02
1149.98
1152.23
1153.73
1143.35
1146.99
1149.97
1152.25
1153.77
1143.59
1147.17
1150.1
1152.33
1153.82
1143.56
1147.17
1150.11
1152.35
1153.86
1131.33
1131.72
1131.44
1131.03
1130.48
1130.71
1130.48
1130.74
1130.89
1131.16
1130.89
1131.12
1135.37
1135.3
1135.12
1134.85
1134.47
1134.01
1135.4
1135.33
1135.16
1134.9
1134.56
1134.15
1135.55
1135.82
1135.47
1135.73
1135.27
1135.5
1134.96
1135.14
1134.53
1134.67
1134.04
1134.19
1133.53
1133.07
1132.67
1132.35
1132.1
1131.92
1133.72
1133.3
1132.93
1132.61
1132.37
1132.2
1135.04
1134.91
1134.93
1135.11
1135.44
1134.97
1134.84
1134.86
1135.04
1135.37
1134.79
1134.66
1134.68
1134.85
1135.18
1134.51
1134.37
1134.39
1134.57
1134.9
1134.13
1133.99
1134
1134.17
1134.5
1133.67
1133.52
1133.53
1133.69
1134.02
1135.07
1134.94
1134.96
1135.14
1135.47
1135
1134.87
1134.89
1135.07
1135.4
1134.83
1134.7
1134.72
1134.89
1135.22
1134.57
1134.43
1134.45
1134.62
1134.95
1134.22
1134.08
1134.09
1134.26
1134.59
1133.81
1133.66
1133.67
1133.83
1134.16
1135.22
1135.09
1135.11
1135.29
1135.62
1135.49
1135.36
1135.38
1135.56
1135.89
1135.14
1135.01
1135.03
1135.21
1135.54
1135.4
1135.27
1135.29
1135.47
1135.8
1134.94
1134.81
1134.83
1135.01
1135.33
1135.17
1135.04
1135.06
1135.24
1135.57
1134.62
1134.49
1134.5
1134.68
1135.01
1134.81
1134.67
1134.69
1134.86
1135.19
1134.19
1134.05
1134.07
1134.24
1134.57
1134.33
1134.19
1134.2
1134.37
1134.7
1133.69
1133.54
1133.55
1133.72
1134.05
1133.84
1133.69
1133.7
1133.86
1134.19
1133.17
1133.01
1133.01
1133.17
1133.49
1132.7
1132.52
1132.51
1132.65
1132.98
1132.28
1132.09
1132.05
1132.18
1132.5
1131.93
1131.71
1131.65
1131.76
1132.07
1131.65
1131.41
1131.32
1131.42
1131.71
1131.46
1131.19
1131.1
1131.18
1131.47
1133.37
1133.21
1133.21
1133.37
1133.69
1132.94
1132.77
1132.75
1132.9
1133.22
1132.55
1132.36
1132.33
1132.47
1132.78
1132.21
1132.01
1131.96
1132.09
1132.4
1131.95
1131.73
1131.67
1131.78
1132.09
1131.77
1131.54
1131.47
1131.58
1131.88
1135.33
1135.19
1134.94
1134.59
1134.14
1133.61
1135.36
1135.22
1134.98
1134.65
1134.24
1133.77
1135.51
1135.78
1135.36
1135.61
1135.08
1135.3
1134.69
1134.86
1134.18
1134.31
1133.6
1133.72
1133.05
1132.54
1132.14
1131.87
1131.77
1131.81
1133.29
1132.84
1132.48
1132.23
1132.11
1132.1
1135
1134.87
1134.9
1135.07
1135.4
1134.86
1134.73
1134.75
1134.93
1135.26
1134.61
1134.48
1134.5
1134.68
1135.01
1134.25
1134.12
1134.14
1134.32
1134.65
1133.8
1133.66
1133.68
1133.85
1134.18
1133.26
1133.12
1133.13
1133.3
1133.63
1135.03
1134.9
1134.92
1135.1
1135.43
1134.89
1134.76
1134.78
1134.96
1135.29
1134.65
1134.52
1134.54
1134.72
1135.05
1134.32
1134.18
1134.2
1134.37
1134.71
1133.9
1133.76
1133.78
1133.95
1134.28
1133.42
1133.28
1133.29
1133.46
1133.79
1135.18
1135.05
1135.08
1135.25
1135.58
1135.45
1135.32
1135.35
1135.52
1135.85
1135.03
1134.9
1134.92
1135.1
1135.43
1135.28
1135.15
1135.17
1135.35
1135.68
1134.75
1134.62
1134.64
1134.82
1135.15
1134.97
1134.84
1134.87
1135.04
1135.37
1134.35
1134.22
1134.24
1134.42
1134.75
1134.52
1134.39
1134.41
1134.58
1134.92
1133.85
1133.71
1133.73
1133.9
1134.23
1133.97
1133.83
1133.85
1134.02
1134.35
1133.26
1133.12
1133.13
1133.3
1133.63
1133.38
1133.24
1133.25
1133.42
1133.75
1132.7
1132.54
1132.55
1132.72
1133.05
1132.18
1132.01
1132.01
1132.16
1132.49
1131.76
1131.58
1131.55
1131.7
1132.02
1131.47
1131.26
1131.21
1131.34
1131.65
1131.33
1131.1
1131.03
1131.13
1131.43
1131.34
1131.08
1130.99
1131.08
1131.38
1132.93
1132.78
1132.79
1132.95
1133.28
1132.48
1132.32
1132.31
1132.47
1132.79
1132.1
1131.92
1131.9
1132.05
1132.37
1131.84
1131.64
1131.6
1131.74
1132.05
1131.7
1131.48
1131.43
1131.55
1131.86
1131.68
1131.45
1131.39
1131.5
1131.8
1131.77
1131.7
1132.48
1133.05
1133.08
1133.21
1132.69
1131.43
1131.59
1131.49
1131.97
1131.9
1131.82
1132.18
1132.25
1132.47
1131.39
1131.43
1131.83
1131.87
1131.63
1131.7
1132.01
1132.08
1132.59
1132.6
1132.16
1132.16
1131.57
1131.57
1131.38
1131.53
1131.59
1131.42
1131.97
1132.42
1131.86
1131.03
1130.67
1130.52
1130.54
1130.76
1131.16
1130.85
1130.71
1130.77
1131.05
1132.11
1131.95
1131.95
1132.11
1132.44
1132.7
1132.55
1132.55
1132.72
1133.05
1132.72
1132.57
1132.58
1132.74
1133.07
1132.86
1132.71
1132.72
1132.89
1133.22
1132.33
1132.18
1132.18
1132.34
1132.67
1130.78
1130.45
1130.31
1130.36
1130.58
1130.96
1130.64
1130.52
1130.58
1130.82
1131.01
1130.75
1130.65
1130.74
1131.03
1131.4
1131.12
1131.03
1131.11
1131.39
1131.5
1131.29
1131.25
1131.38
1131.69
1131.38
1131.15
1131.08
1131.19
1131.5
1131.8
1131.61
1131.58
1131.72
1132.04
1131.86
1131.66
1131.63
1131.76
1132.08
1132.09
1131.91
1131.89
1132.03
1132.35
1130.75
1130.43
1130.3
1130.35
1130.58
1130.97
1130.73
1130.64
1130.74
1131.04
1131.43
1131.24
1131.2
1131.34
1131.65
1131.48
1131.29
1131.27
1131.41
1131.73
1131.22
1131.01
1130.96
1131.08
1131.4
1131.3
1131.1
1131.06
1131.19
1131.51
1131.63
1131.45
1131.42
1131.57
1131.89
1131.71
1131.53
1131.52
1131.67
1131.99
1132.23
1132.06
1132.05
1132.2
1132.53
1132.23
1132.07
1132.07
1132.23
1132.56
1131.79
1131.61
1131.59
1131.73
1132.06
1131.79
1131.62
1131.6
1131.75
1132.08
1130.88
1130.54
1130.4
1130.44
1130.66
1131.07
1130.79
1130.68
1130.76
1131.04
1130.83
1130.54
1130.42
1130.49
1130.74
1131.09
1130.85
1130.78
1130.89
1131.19
1131.17
1130.96
1130.91
1131.03
1131.34
1130.96
1130.71
1130.62
1130.72
1131.02
1131.58
1131.4
1131.38
1131.53
1131.85
1132.06
1131.89
1131.89
1132.04
1132.37
1131.48
1131.29
1131.26
1131.4
1131.72
1132.04
1131.72
1131.6
1131.65
1131.86
1132.27
1131.87
1131.89
1131.3
1131.29
1131.92
1131.97
1131.32
1131.35
1132.47
1133.1
1132.47
1133.04
1132.53
1132.5
1132.94
1131.85
1131.88
1131.28
1131.27
1131.91
1131.96
1131.3
1131.34
1132.5
1133.17
1132.51
1133.09
1132.56
1132.51
1132.98
1131.86
1131.89
1131.28
1131.26
1131.92
1131.97
1131.3
1131.34
1132.54
1133.34
1132.54
1133.24
1132.59
1132.54
1133.11
1131.97
1132
1131.38
1131.36
1132.04
1132.1
1131.41
1131.45
1132.69
1133.54
1132.69
1133.44
1132.74
1132.68
1133.28
1132.17
1132.2
1131.58
1131.56
1132.24
1132.31
1131.61
1131.65
1132.9
1133.69
1132.89
1133.61
1132.93
1132.88
1133.45
1132.54
1132.56
1131.96
1131.94
1132.59
1132.65
1131.98
1132.02
1133.22
1133.95
1133.21
1133.87
1133.24
1133.19
1133.72
1130.4
1130.39
1130.8
1130.8
1130.4
1130.41
1130.81
1130.82
1130.1
1129.88
1130.12
1129.92
1130.12
1130.16
1129.98
1130.37
1130.37
1130.78
1130.77
1130.39
1130.4
1130.79
1130.81
1130.06
1129.88
1130.09
1129.92
1130.11
1130.16
1129.99
1130.36
1130.37
1130.77
1130.76
1130.39
1130.42
1130.79
1130.82
1130.08
1129.96
1130.11
1130
1130.15
1130.2
1130.07
1130.46
1130.47
1130.87
1130.85
1130.5
1130.54
1130.89
1130.92
1130.21
1130.15
1130.24
1130.19
1130.29
1130.35
1130.25
1130.67
1130.69
1131.08
1131.06
1130.73
1130.78
1131.1
1131.13
1130.45
1130.42
1130.49
1130.45
1130.54
1130.61
1130.5
1131.07
1131.08
1131.46
1131.44
1131.12
1131.16
1131.49
1131.52
1130.85
1130.78
1130.88
1130.81
1130.93
1130.99
1130.86
1135.19
1135.09
1134.9
1134.73
1134.47
1134.3
1133.87
1133.73
1133.98
1133.83
1134.45
1134.29
1134.79
1134.64
1135.07
1134.96
1134.34
1134.12
1134.05
1133.76
1133.61
1133.34
1133.35
1133
1135.57
1136.18
1135.46
1136.03
1135.29
1135.88
1135.11
1135.67
1134.68
1135.01
1134.38
1134.79
1135.52
1135.17
1133.7
1133.18
1133.42
1133.03
1133.04
1132.6
1132.7
1132.37
1134.32
1133.78
1134.01
1133.6
1134.82
1134.3
1136.89
1137.31
1136.6
1137.03
1136.59
1137.11
1136.24
1136.72
1136.15
1136.87
1135.62
1136.28
1135.21
1135.86
1134.74
1135.41
1134.18
1134.09
1133.73
1133.69
1133.22
1133.1
1132.86
1132.74
1134.57
1134.69
1135.1
1135.12
1133.35
1133.35
1133
1133.07
1132.54
1132.44
1132.23
1132.18
1134.13
1134.34
1133.75
1134.05
1135.39
1136.19
1135.69
1136.59
1135.96
1136.78
1136.14
1137.08
1134.92
1135.69
1135.33
1136.21
1134.5
1135.26
1135.04
1135.9
1137.89
1138.81
1138.04
1138.96
1137.61
1138.46
1137.88
1138.76
1137.14
1137.8
1137.63
1138.35
1134.82
1133.68
1135.85
1136.63
1137.47
1133.84
1135.04
1136.27
1137.1
1138.01
1133.55
1134.62
1135.66
1136.64
1137.6
1139.67
1140.08
1140.13
1140.5
1139.22
1139.7
1139.83
1140.23
1138.48
1139.01
1139.33
1139.81
1134.1
1134.53
1135.42
1136
1136.63
1137.24
1137.59
1138.2
1138.87
1139.48
1133.74
1134.09
1134.94
1135.56
1136.07
1136.77
1137.19
1137.94
1138.6
1139.39
1134.39
1135.08
1133.89
1134.5
1133.21
1133.41
1132.77
1132.88
1135.09
1135.9
1135.57
1136.44
1133.47
1134.08
1133.2
1133.78
1132.41
1132.51
1132.15
1132.23
1134.64
1135.47
1134.37
1135.18
1136.44
1137.43
1138.12
1139.32
1136.83
1137.87
1138.38
1139.55
1136.08
1137.04
1137.87
1139.05
1135.74
1136.71
1137.51
1138.63
1140.2
1140.37
1140.71
1140.28
1140.35
1140.66
1139.91
1140.13
1140.49
1140.07
1140.15
1140.48
1139.35
1139.64
1140.04
1139.75
1139.89
1140.26
1135.06
1135.67
1136.32
1136.63
1137.16
1137.73
1137.82
1138.27
1138.77
1138.67
1139.05
1139.52
1139.5
1139.69
1140.13
1134.58
1135.26
1135.99
1136.37
1137.08
1137.8
1137.6
1138.22
1138.86
1138.58
1139.05
1139.62
1139.49
1139.74
1140.24
1132.32
1132.1
1132.12
1131.84
1132.9
1132.63
1132.68
1132.34
1132.2
1131.74
1132.15
1131.73
1132.06
1131.66
1131.97
1131.59
1131.66
1131.85
1131.54
1131.76
1131.58
1131.42
1131.62
1131.37
1132.07
1131.79
1131.53
1131.29
1131.36
1131.13
1131.33
1131.1
1131.28
1130.88
1131.36
1130.98
1131.22
1130.8
1131.24
1130.85
1131.17
1130.71
1131.07
1130.65
1130.99
1130.62
1130.78
1130.48
1131.8
1131.61
1131.55
1131.34
1132.42
1132.25
1132.12
1131.94
1131.16
1130.9
1131.37
1131.14
1131.31
1131.1
1131.06
1130.89
1131.84
1131.67
1131.57
1131.44
1130.94
1130.69
1130.72
1130.5
1130.82
1130.46
1130.61
1130.39
1131
1130.61
1130.82
1130.57
1130.64
1130.33
1130.42
1130.24
1130.45
1130.18
1130.26
1130.11
1131.3
1131.49
1130.92
1131.12
1131.29
1131.49
1130.89
1131.1
1131.28
1131.47
1130.84
1131.03
1131.99
1132.71
1131.53
1131.17
1130.79
1132.86
1132.14
1131.72
1131.36
1130.96
1132.58
1131.87
1131.36
1131.02
1130.74
1131.83
1132.29
1131.46
1131.92
1131.8
1132.25
1131.41
1131.84
1131.73
1132.16
1131.3
1131.71
1133.05
1133.41
1132.29
1132.65
1131.85
1132.23
1131.52
1131.9
1131.14
1131.52
1132.7
1132.91
1131.97
1132.18
1131.48
1131.73
1131.16
1131.48
1130.92
1131.31
1131.57
1131.64
1131.29
1131.28
1132.23
1132.28
1131.89
1131.84
1130.9
1130.99
1131.14
1131.3
1131.07
1131
1130.86
1130.77
1131.63
1131.52
1131.39
1131.26
1130.7
1130.74
1130.52
1130.54
1130.66
1130.86
1130.55
1130.86
1130.88
1131.14
1130.72
1131.08
1130.48
1130.63
1130.4
1130.67
1130.33
1130.46
1130.26
1130.5
1132.93
1133.56
1134.15
1132.7
1133.41
1134.01
1132.84
1133.48
1134.09
1132.6
1133.31
1133.93
1132.72
1133.34
1133.96
1132.43
1133.18
1133.84
1133.89
1134.5
1135.15
1133.15
1133.78
1134.45
1132.74
1133.39
1134.07
1132.44
1133.1
1133.76
1132.24
1133.04
1133.76
1133.29
1133.95
1134.69
1132.59
1133.26
1134.01
1132.2
1132.91
1133.68
1132.02
1132.77
1133.55
1132.06
1132.89
1133.69
1130.7
1130.97
1131.68
1133
1130.83
1131.11
1131.85
1133.18
1130.65
1130.93
1131.64
1132.97
1130.73
1131.03
1131.78
1133.11
1130.58
1130.88
1131.56
1132.85
1130.55
1130.88
1131.62
1132.93
1130.58
1130.94
1131.73
1133.08
1130.5
1130.91
1131.73
1133.09
1130.42
1130.78
1131.49
1132.8
1130.45
1130.82
1131.48
1132.65
1130.54
1130.85
1131.5
1132.71
1130.57
1130.91
1131.52
1132.63
1130.33
1130.72
1131.49
1132.85
1130.34
1130.75
1131.44
1132.64
1130.24
1130.66
1131.46
1132.81
1130.24
1130.68
1131.4
1132.59
1130.72
1130.96
1131.61
1132.85
1130.89
1131.09
1131.64
1132.72
1130.71
1130.95
1131.59
1132.82
1130.88
1131.09
1131.64
1132.71
1130.69
1130.95
1131.57
1132.76
1130.85
1131.08
1131.63
1132.69
1130.68
1130.96
1131.55
1132.68
1130.81
1131.07
1131.62
1132.64
1130.7
1131
1131.56
1132.59
1131.15
1131.31
1131.81
1132.58
1131.44
1131.58
1132.09
1132.81
1131.12
1131.3
1131.8
1132.57
1131.4
1131.57
1132.08
1132.81
1131.06
1131.27
1131.78
1132.56
1131.35
1131.54
1132.07
1132.79
1130.97
1131.22
1131.74
1132.52
1131.27
1131.5
1132.04
1132.78
1130.86
1131.16
1131.7
1132.49
1131.17
1131.45
1132.02
1132.76
1130.65
1131.04
1131.65
1132.46
1130.93
1131.31
1131.93
1132.7
1130.76
1131.1
1131.68
1132.48
1131.05
1131.38
1131.97
1132.73
1130.56
1130.98
1131.62
1132.45
1130.82
1131.25
1131.89
1132.67
1130.47
1130.93
1131.58
1132.42
1130.72
1131.18
1131.85
1132.64
1135
1136.62
1137.99
1139.11
1139.98
1135.1
1136.7
1138.07
1139.19
1140.06
1134.99
1136.61
1137.99
1139.11
1139.98
1135.08
1136.69
1138.06
1139.18
1140.05
1134.97
1136.6
1137.98
1139.11
1139.97
1135.01
1136.62
1138
1139.13
1139.99
1135.05
1136.67
1138.05
1139.17
1140.04
1135.03
1136.65
1138.03
1139.16
1140.03
1134.95
1136.59
1137.98
1139.1
1139.97
1135.03
1136.71
1138.1
1139.23
1140.09
1134.97
1136.62
1138.01
1139.13
1140
1135.06
1136.74
1138.13
1139.25
1140.12
1134.95
1136.59
1137.98
1139.11
1139.97
1135.04
1136.72
1138.12
1139.24
1140.11
1134.93
1136.58
1137.97
1139.1
1139.96
1135.04
1136.73
1138.12
1139.25
1140.12
1135.01
1136.65
1138.03
1139.15
1140.02
1135.13
1136.8
1138.18
1139.3
1140.16
1135.01
1136.66
1138.04
1139.16
1140.03
1135.13
1136.8
1138.18
1139.3
1140.16
1135.01
1136.67
1138.05
1139.18
1140.04
1135.13
1136.81
1138.19
1139.31
1140.17
1135.05
1136.72
1138.11
1139.23
1140.1
1135.15
1136.83
1138.22
1139.34
1140.2
1135.12
1136.8
1138.19
1139.31
1140.17
1142.08
1142.35
1141.96
1142.23
1141.74
1142.04
1141.47
1141.82
1141.2
1141.6
1140.77
1141.24
1140.99
1141.44
1140.55
1141
1140.32
1140.74
1144.99
1148.16
1150.84
1152.92
1154.34
1144.94
1148.14
1150.84
1152.93
1154.38
1144.93
1148.13
1150.82
1152.9
1154.33
1144.89
1148.12
1150.82
1152.93
1154.37
1144.82
1148.07
1150.78
1152.87
1154.3
1144.79
1148.06
1150.79
1152.9
1154.35
1144.68
1147.99
1150.72
1152.83
1154.26
1144.65
1147.98
1150.73
1152.86
1154.31
1144.51
1147.88
1150.64
1152.77
1154.22
1144.51
1147.89
1150.67
1152.81
1154.27
1144.15
1147.61
1150.44
1152.61
1154.07
1144.18
1147.65
1150.49
1152.67
1154.14
1144.33