/*--------------------------------*- C++ -*----------------------------------*\
  =========                 |
  \\      /  F ield         | OpenFOAM: The Open Source CFD Toolbox
   \\    /   O peration     | Website:  https://openfoam.org
    \\  /    A nd           | Version:  13
     \\/     M anipulation  |
\*---------------------------------------------------------------------------*/
FoamFile
{
    format      ascii;
    class       volScalarField;
    location    "429.831886";
    object      T;
}
// * * * * * * * * * * * * * * * * * * * * * * * * * * * * * * * * * * * * * //

dimensions      [0 0 0 1 0 0 0];

internalField   nonuniform List<scalar> 
5712
(
557.666
558.155
558.963
559.723
560.944
561.719
563.729
564.359
563.206
563.935
561.026
561.761
559.45
560.143
558.276
558.798
561.524
562.478
562.847
564.181
564.907
566.138
566.127
567.707
555.91
553.04
556.436
553.758
557.129
554.379
557.954
555.362
559.931
558.412
561.302
559.378
556.035
557.658
564.514
566.976
565.814
567.666
567.6
569.683
569.154
570.752
561.608
564.169
563.04
564.995
559.31
561.792
549.764
547.859
551.146
549.173
551.111
548.711
552.74
550.542
553.082
549.824
555.563
552.545
557.505
554.522
559.722
556.684
562.177
562.592
564.3
564.495
566.652
567.188
568.352
568.893
560.417
559.832
557.93
557.814
566.117
566.091
567.776
567.434
569.906
570.348
571.379
571.606
562.473
561.521
564.313
562.904
556.63
552.994
555.245
551.172
553.951
550.234
553.142
548.917
558.86
555.317
556.989
552.987
560.848
557.35
558.379
554.432
545.175
540.964
544.489
540.308
546.416
542.491
545.159
541.168
548.53
545.503
546.315
543.023
559.177
564.437
554.425
550.859
547.062
563.679
558.131
552.477
548.667
544.567
565.052
560.091
555.315
550.833
546.505
537.09
535.187
534.99
533.291
539.019
536.834
536.289
534.454
542.396
539.937
538.533
536.35
562.422
560.387
556.375
553.632
550.821
547.991
546.408
543.614
540.671
537.892
564.105
562.43
558.564
555.69
553.398
550.151
548.307
544.83
541.98
538.359
561.161
557.955
563.512
560.664
566.61
565.619
568.723
568.141
558.024
554.294
555.735
551.773
565.527
562.669
566.854
564.134
570.449
569.902
571.712
571.311
560.119
556.315
561.449
557.737
551.84
547.377
544.289
538.936
549.993
545.305
543.04
537.781
553.546
549.223
545.482
540.218
555.163
550.796
547.155
542.167
534.597
533.808
532.356
534.187
533.879
532.56
535.832
534.841
533.291
535.119
534.725
533.294
538.383
537.05
535.295
536.544
535.923
534.304
557.896
555.087
552.151
550.721
548.291
545.738
545.311
543.238
541.023
541.429
539.699
537.6
537.694
536.813
534.902
560.101
556.938
553.607
551.894
548.631
545.387
546.323
543.462
540.591
541.863
539.723
537.214
537.817
536.654
534.439
570.944
571.942
571.871
573.171
568.216
569.448
569.273
570.813
571.532
573.648
571.787
573.761
572.131
574.022
572.585
574.364
574.034
573.141
574.569
573.516
574.399
575.145
574.24
575.492
572.103
573.491
574.655
575.844
575.447
576.59
575.6
576.771
575.775
577.664
575.436
577.211
576.042
577.995
575.982
577.787
576.288
578.428
576.819
578.776
577.228
578.955
578.24
579.667
573.272
574.147
574.493
575.479
570.391
571.15
571.811
572.638
576.377
577.557
575.3
576.379
575.694
576.644
576.899
577.684
573.166
573.935
574.488
575.086
577.441
578.594
578.549
579.523
577.958
579.663
578.934
579.963
577.078
578.906
577.897
579.089
578.837
580.345
579.852
580.728
579.809
581.078
580.669
581.4
575.666
574.71
577.437
576.441
575.681
574.671
577.565
576.531
575.706
574.792
577.773
576.842
572.348
568.939
574.504
576.205
578.027
568.238
571.609
573.617
575.283
577.21
569.572
572.887
575.28
576.901
578.234
573.082
570.859
574.791
572.629
573.192
571.069
575.044
572.963
573.496
571.482
575.537
573.585
567.303
565.595
570.87
569.115
572.923
571.115
574.497
572.653
576.315
574.464
568.973
567.937
572.368
571.316
574.689
573.438
576.194
574.669
577.365
575.487
574.299
573.881
575.661
575.608
571.204
570.884
572.826
572.978
577.496
576.977
576.319
575.497
576.729
576.971
577.768
578.127
574.111
574.546
575.269
575.844
578.462
578.202
579.398
579.241
578.638
577.628
579.188
577.647
577.558
576.285
578.338
576.599
579.538
578.767
579.936
578.588
580.314
579.646
580.618
579.446
567.857
564.909
562.17
568.926
565.587
562.832
568.248
565.259
562.453
569.402
566.032
563.154
568.822
565.88
563.023
570.174
566.636
563.559
563.301
560.476
557.479
566.751
563.803
560.718
568.702
565.615
562.462
570.087
566.996
563.934
571.02
567.285
563.926
566.08
562.998
559.583
569.356
566.191
562.735
571.19
567.825
564.251
572.026
568.477
564.865
571.862
567.933
564.233
578.452
577.131
573.68
567.385
577.908
576.491
572.923
566.577
578.7
577.329
573.865
567.508
578.363
576.853
573.25
566.88
579.028
577.582
574.26
568.087
579.197
577.569
574.018
567.71
579.132
577.319
573.514
567.047
579.537
577.507
573.54
567.019
579.82
578.093
574.622
568.362
579.712
577.876
574.701
569.066
579.253
577.71
574.578
568.773
579.084
577.437
574.493
569.191
580.292
578.382
574.632
568.138
580.266
578.263
574.895
569.124
580.779
578.69
574.8
568.33
580.759
578.605
575.131
569.379
578.333
577.163
574.027
568.103
577.526
576.546
573.874
568.703
578.404
577.198
574.105
568.218
577.561
576.537
573.881
568.757
578.506
577.229
574.236
568.518
577.733
576.604
573.942
568.879
578.538
577.168
574.325
568.941
577.897
576.654
574.024
569.101
578.467
576.994
574.28
569.346
576.297
575.487
573.089
569.411
574.93
574.227
571.79
568.367
576.451
575.572
573.156
569.484
575.09
574.307
571.839
568.402
576.731
575.723
573.248
569.55
575.37
574.445
571.914
568.468
577.14
575.952
573.422
569.705
575.752
574.646
572.036
568.559
577.674
576.257
573.634
569.875
576.203
574.879
572.169
568.652
578.717
576.86
573.936
570.024
577.383
575.571
572.609
568.957
578.201
576.554
573.777
569.938
576.79
575.219
572.385
568.807
579.189
577.148
574.087
570.099
577.939
575.908
572.818
569.121
579.648
577.447
574.29
570.265
578.458
576.238
573.038
569.296
557.889
550.301
543.91
538.789
534.938
557.432
549.935
543.567
538.456
534.611
557.947
550.331
543.929
538.803
534.95
557.52
549.991
543.609
538.492
534.644
558.057
550.381
543.96
538.827
534.971
557.858
550.274
543.868
538.736
534.88
557.686
550.095
543.681
538.547
534.691
557.809
550.182
543.745
538.597
534.735
558.132
550.423
543.987
538.846
534.986
557.768
549.897
543.447
538.312
534.462
558.045
550.291
543.856
538.721
534.866
557.646
549.772
543.33
538.203
534.357
558.148
550.429
543.982
538.834
534.971
557.737
549.847
543.386
538.247
534.395
558.274
550.512
544.041
538.88
535.012
557.777
549.847
543.369
538.22
534.364
557.841
550.133
543.727
538.609
534.761
557.305
549.497
543.097
537.993
534.157
557.857
550.124
543.711
538.589
534.741
557.322
549.498
543.093
537.986
534.149
557.854
550.074
543.649
538.524
534.675
557.322
549.473
543.059
537.949
534.111
557.702
549.848
543.414
538.289
534.441
557.236
549.366
542.946
537.834
533.995
557.382
549.507
543.076
537.958
534.118
526.401
525.238
526.939
525.752
527.926
526.606
529.189
527.638
530.467
528.659
532.521
530.436
531.477
529.434
533.548
531.545
534.614
532.796
513.824
500.328
489.212
480.753
475.143
514.027
500.442
489.203
480.692
474.99
514.067
500.456
489.293
480.811
475.193
514.247
500.537
489.282
480.718
475.028
514.556
500.729
489.47
480.942
475.305
514.72
500.799
489.452
480.843
475.134
515.222
501.122
489.732
481.137
475.47
515.329
501.158
489.69
481.019
475.283
516.006
501.625
490.078
481.397
475.69
515.992
501.583
489.984
481.241
475.473
517.707
502.86
490.992
482.116
476.321
517.539
502.7
490.809
481.898
476.062
516.854
502.226
490.514
481.733
475.981
516.721
502.093
490.35
481.526
475.725
518.56
503.511
491.493
482.52
476.681
518.454
503.397
491.35
482.339
476.457
519.432
504.185
492.017
482.945
477.056
519.449
504.143
491.942
482.82
476.87
574.109
572.153
570.44
572.67
569.806
570.106
570.186
570.597
569.534
570.099
566.948
567.606
565.615
566.348
567.557
568.172
568.322
568.745
568.478
568.806
572.411
572.893
566.736
564.376
563.723
563.45
565.587
566.846
564.169
567.264
561.876
558.497
566.614
565.659
563.026
565.888
564.727
564.507
569.073
569.201
567.691
568.184
568.892
569.439
568.751
567.891
564.946
565.453
566.609
567.139
571.397
572.114
570.782
571.352
570.412
570.241
568.558
566.515
568.618
575.931
577.751
578.536
578.458
577.496
575.495
577.002
577.673
577.433
576.176
568.445
569.247
569.332
568.652
567.175
566.01
566.735
566.75
566.023
564.533
565.378
566.134
566.183
565.485
564.014
565.076
565.798
565.812
565.088
563.604
567.271
568.049
568.115
567.424
565.947
570.667
573.005
574.248
574.519
573.853
568.222
570.732
572.042
572.316
571.531
569.961
571.71
572.651
572.617
571.481
565.599
567.994
569.196
569.358
568.384
562.103
564.537
565.745
565.914
564.947
568.73
569.975
570.482
570.124
568.813
568.129
569.704
570.497
570.348
569.149
565.4
566.904
567.643
567.461
566.256
567.85
568.944
569.315
568.858
567.501
566.81
568.032
568.523
568.156
566.851
566.424
567.476
567.814
567.337
565.976
572.576
574.57
575.593
575.711
574.897
571.585
573.056
573.759
573.552
572.317
569.702
570.836
571.241
570.805
569.451
570.103
571.135
571.443
570.932
569.537
570.973
572.169
572.627
572.23
570.892
571.404
572.477
572.818
572.33
570.941
570.575
571.495
571.691
571.091
569.646
569.696
570.604
570.793
570.191
568.749
566.718
567.606
567.785
567.185
565.759
567.177
568.004
568.12
567.47
566.015
568.481
569.474
569.749
569.218
567.819
568.954
569.879
570.085
569.5
568.071
574.804
576.669
577.522
577.501
576.606
574.546
575.969
576.588
576.311
575.032
573.593
575.244
576.066
575.988
574.951
573.508
574.744
575.225
574.84
573.499
572.443
573.574
573.966
573.514
572.141
572.578
573.993
574.651
574.411
573.156
570.397
571.338
571.555
570.973
569.537
568.251
569.087
569.208
568.556
567.096
570.511
571.513
571.79
571.254
569.843
573.027
571.957
572.926
571.734
575.608
574.355
575.671
574.567
572.811
572.658
571.645
571.852
575.552
575.467
574.379
574.689
570.304
567.657
569.352
566.815
570.279
567.88
569.149
566.802
569.065
570.087
569.613
570.305
568.227
567.204
570.219
568.979
570.719
569.357
572.852
571.542
573.563
572.285
567.69
566.364
568.441
566.922
565.78
564.189
565.252
563.188
564.529
562.57
565.405
562.948
564.457
562.288
565.812
562.47
565.139
562.18
563.819
560.794
561.997
558.92
571.811
571.118
571.23
570.438
575.214
574.976
574.593
574.378
568.024
566.067
568.548
566.772
570.315
569.619
569.148
568.613
573.7
573.619
572.616
572.704
567.1
565.22
565.836
564.137
564.717
561.026
561.578
557.416
565.075
561.093
562.184
557.791
563.828
560.303
560.759
556.722
562.494
559.025
559.638
555.681
565.087
563.887
562.787
560.885
565.27
564.292
562.435
560.614
565.614
565.101
561.805
560.306
571.979
575.496
568.561
564.921
560.349
575.623
572.281
568.872
565.036
559.577
575.303
571.527
567.218
562.553
557.794
561.929
561.063
555.873
554.117
562.849
561.983
556.226
554.474
564.216
563.511
556.652
554.892
575.575
575.121
572.014
571.468
568.323
567.771
563.903
563.181
556.073
554.197
575.312
574.84
571.165
569.995
566.485
564.997
561.115
559.335
553.962
551.7
570.152
568.095
569.538
567.428
574.864
574.701
574.325
574.275
564.275
561.261
565.013
562.16
568.999
566.562
567.997
565.385
573.687
573.485
572.782
572.473
563.73
560.335
562.634
559.028
558.045
554.17
550.223
545.355
559.134
555.376
551.687
547.127
557.197
553.177
548.974
543.955
556.399
552.105
548.269
543.338
560.759
560.022
555.316
555.248
561.648
560.827
555.54
555.551
562.969
561.766
555.767
555.722
574.134
572.362
570.407
568.756
566.851
565.439
562.447
561.135
555.345
555.412
573.86
571.959
568.392
566.674
563.61
562.354
558.826
558.306
553.948
554.385
579.917
579.975
578.77
579.217
577.972
578.026
576.77
577.234
581.327
582.307
580.26
581.274
581.277
582.188
580.114
581.092
580.268
581.273
580.388
581.151
581.96
581.006
578.137
576.849
576.167
574.911
578.869
577.401
579.276
577.97
579.647
578.3
582.893
583.263
581.887
582.313
582.865
583.331
581.802
582.357
582.766
583.409
581.949
582.71
580.72
581.612
579.521
580.635
580.301
580.355
579.737
579.94
578.09
578.113
577.49
577.602
581.249
581.528
581.765
581.869
578.925
579.338
577.963
578.592
576.639
576.916
575.624
576.09
580.477
581.003
579.561
580.335
582.331
583.069
582.44
582.833
582.797
583.382
582.723
583.037
581.6
582.507
581.986
582.479
580.739
581.815
581.39
581.992
583.346
583.197
583.647
583.384
583.246
583.082
583.626
583.337
583.03
582.895
583.547
583.287
580.528
578.359
581.96
582.913
583.374
578.354
580.434
581.843
582.789
583.198
578.39
580.542
581.995
582.807
583.063
582.507
581.289
582.555
581.244
582.498
581.362
582.61
581.353
582.456
581.45
582.685
581.533
578.365
577.918
580.441
579.873
581.724
580.998
582.532
581.675
582.733
581.687
578.534
578.375
580.645
580.399
581.973
581.493
582.632
581.875
582.664
581.623
580.661
580.771
580.169
580.485
578.456
578.756
577.883
578.44
581.533
581.409
581.947
581.663
579.422
579.892
578.666
579.087
577.085
577.79
576.255
576.904
580.892
580.868
580.209
580.121
582.2
581.609
582.152
581.116
582.529
581.809
582.461
581.366
581.705
581.158
581.729
580.665
581.065
580.464
581.213
580.117
579.796
578.397
579.337
577.69
579.973
578.472
579.476
577.733
580.124
578.469
579.688
577.668
576.927
575.129
578.768
576.917
579.822
577.949
580.374
578.444
579.831
577.453
577.579
575.509
579.445
577.265
580.283
577.995
580.364
577.975
579.571
576.885
582.395
579.82
575.526
568.631
581.52
578.961
574.628
567.735
582.442
579.882
575.604
568.661
581.596
579.067
574.774
567.907
582.472
579.934
575.868
569.144
581.925
579.439
575.32
568.59
580.962
578.576
574.39
567.645
580.201
577.965
573.86
567.24
582.192
579.723
575.768
569.161
581.744
579.273
575.705
569.811
582.356
579.832
576.053
569.772
581.865
579.339
575.825
570.129
581.803
579.424
575.374
568.671
581.514
579.124
575.526
569.615
581.301
579.051
575.058
568.516
581.182
578.897
575.347
569.55
582.692
580.118
576.053
569.48
582.314
579.755
576.076
570.233
582.633
580.067
576.064
569.531
582.224
579.665
576.021
570.232
582.49
579.933
576.08
569.738
582.106
579.547
575.949
570.248
582.214
579.665
576.035
570.077
581.942
579.383
575.882
570.352
581.834
579.281
575.86
570.432
581.401
578.857
575.396
571.162
580.197
577.661
574.161
570.237
581.399
578.85
575.401
571.184
580.191
577.646
574.148
570.225
581.368
578.811
575.359
571.137
580.156
577.598
574.097
570.194
581.323
578.754
575.341
571.136
580.113
577.535
574.046
570.152
581.237
578.659
575.304
571.14
580.028
577.429
573.957
570.079
580.786
578.27
574.951
570.842
579.699
577.135
573.722
569.856
581.049
578.486
575.14
570.998
579.916
577.317
573.868
570
580.452
578.011
574.716
570.624
579.353
576.866
573.503
569.677
580.07
577.737
574.502
570.444
578.926
576.556
573.266
569.482
558.625
550.751
544.191
538.977
535.084
558.134
550.367
543.837
538.637
534.753
558.62
550.742
544.185
538.975
535.084
558.134
550.369
543.846
538.65
534.767
558.65
550.741
544.185
538.978
535.088
558.368
550.588
544.064
538.868
534.983
558.042
550.313
543.818
538.638
534.763
557.944
550.265
543.797
538.631
534.762
558.592
550.704
544.162
538.964
535.078
558.175
550.142
543.599
538.414
534.541
558.588
550.619
544.06
538.858
534.973
558.132
550.063
543.511
538.324
534.451
558.466
550.624
544.104
538.916
535.035
558.015
550.015
543.491
538.317
534.45
558.385
550.58
544.083
538.908
535.034
557.874
549.906
543.405
538.244
534.383
558.612
550.598
544.017
538.803
534.912
558.099
549.971
543.391
538.19
534.31
558.582
550.561
543.983
538.771
534.883
558.08
549.951
543.373
538.174
534.296
558.506
550.465
543.893
538.687
534.802
558.014
549.885
543.314
538.12
534.244
558.284
550.196
543.63
538.434
534.554
557.847
549.73
543.172
537.985
534.113
557.917
549.827
543.275
538.091
534.222
543.243
541.891
543.051
541.67
542.609
541.194
541.9
540.518
540.755
539.57
537.824
536.279
539.143
537.801
536.683
534.976
535.645
533.911
525.953
508.884
495.518
485.71
479.434
526.347
509.096
495.559
485.679
479.293
525.778
508.761
495.431
485.644
479.379
526.119
508.923
495.464
485.571
479.221
525.421
508.515
495.258
485.512
479.268
525.771
508.689
495.3
485.447
479.117
524.864
508.138
494.99
485.305
479.091
525.259
508.346
495.059
485.262
478.959
524.071
507.611
494.611
485.009
478.835
524.596
507.911
494.748
485.02
478.749
522.154
506.292
493.644
484.251
478.187
522.509
506.515
493.743
484.25
478.109
523.129
506.989
494.16
484.655
478.53
523.642
507.3
494.311
484.684
478.468
521.225
505.59
493.109
483.826
477.824
521.422
505.709
493.143
483.783
477.717
520.314
504.877
492.557
483.382
477.439
520.417
504.903
492.536
483.299
477.29
575.74
573.882
575.274
577.221
579.912
578.826
579.916
578.672
577.972
576.688
577.991
576.892
555.699
556.02
556.854
558.192
560.005
562.197
555.6
555.905
556.698
557.951
559.608
561.565
554.871
553.66
555.236
554.077
556.172
555.136
557.688
556.878
559.725
559.119
562.098
561.437
564.559
566.812
568.768
570.404
571.651
572.574
563.662
565.711
567.57
569.149
570.391
571.274
557.177
557.763
557.661
556.869
555.39
557.503
558.093
557.995
557.205
555.725
558.349
558.949
558.857
558.07
556.588
559.706
560.321
560.242
559.459
557.972
561.547
562.187
562.127
561.354
559.862
563.779
564.455
564.426
563.67
562.177
557.079
557.666
557.567
556.777
555.3
557.389
557.981
557.886
557.098
555.62
558.193
558.796
558.708
557.924
556.444
559.466
560.084
560.009
559.231
557.748
561.151
561.794
561.738
560.971
559.484
563.146
563.823
563.798
563.047
561.56
556.342
556.924
556.822
556.032
554.558
555.122
555.7
555.598
554.812
553.347
556.712
557.299
557.199
556.411
554.936
555.545
556.128
556.029
555.245
553.778
557.66
558.257
558.164
557.379
555.9
556.617
557.21
557.118
556.337
554.865
559.197
559.81
559.73
558.948
557.465
558.382
558.994
558.915
558.138
556.661
561.265
561.904
561.844
561.072
559.583
560.657
561.298
561.242
560.476
558.993
563.68
564.356
564.328
563.573
562.08
563.019
563.7
563.678
562.931
561.446
566.197
566.926
566.943
566.217
564.727
568.523
569.326
569.411
568.731
567.253
570.577
571.481
571.659
571.045
569.593
572.345
573.38
573.677
573.149
571.733
573.744
574.909
575.315
574.867
573.489
574.77
576.01
576.472
576.063
574.702
565.293
566.019
566.036
565.313
563.829
567.406
568.195
568.27
567.585
566.111
569.341
570.21
570.357
569.722
568.265
571.009
571.965
572.192
571.614
570.178
572.334
573.369
573.664
573.133
571.716
573.267
574.345
574.673
574.165
572.755
555.896
556.611
557.841
559.575
561.787
564.382
555.795
556.49
557.671
559.307
561.333
563.628
555.076
553.875
555.851
554.722
557.2
556.215
559.136
558.405
561.596
561.086
564.431
563.934
567.111
569.599
571.574
572.875
573.371
573.195
565.99
568.167
569.943
571.163
571.755
571.758
557.374
557.96
557.858
557.064
555.583
558.096
558.686
558.585
557.79
556.304
559.338
559.936
559.838
559.043
557.55
561.092
561.702
561.612
560.817
559.316
563.331
563.962
563.885
563.093
561.582
565.963
566.623
566.569
565.785
564.265
557.275
557.862
557.762
556.97
555.491
557.976
558.567
558.468
557.676
556.192
559.169
559.769
559.674
558.881
557.391
560.824
561.437
561.352
560.56
559.063
562.877
563.511
563.439
562.653
561.147
565.207
565.87
565.822
565.045
563.533
556.548
557.13
557.026
556.235
554.759
555.338
555.916
555.812
555.025
553.557
557.329
557.915
557.813
557.02
555.54
556.192
556.774
556.672
555.883
554.41
558.692
559.286
559.188
558.393
556.905
557.7
558.291
558.193
557.402
555.921
560.648
561.256
561.165
560.371
558.872
559.912
560.518
560.428
559.637
558.144
563.137
563.766
563.688
562.896
561.386
562.624
563.254
563.179
562.389
560.884
566.011
566.669
566.612
565.827
564.305
565.511
566.17
566.116
565.333
563.816
568.741
569.444
569.425
568.659
567.135
571.292
572.057
572.091
571.36
569.84
573.355
574.206
574.32
573.644
572.143
574.779
575.753
575.979
575.384
573.92
575.43
576.543
576.89
576.388
574.971
575.376
576.595
577.033
576.603
575.227
567.615
568.32
568.305
567.547
566.033
569.849
570.609
570.643
569.916
568.407
571.697
572.528
572.628
571.947
570.452
573.002
573.92
574.1
573.476
572.005
573.68
574.685
574.943
574.379
572.936
573.744
574.809
575.124
574.604
573.184
573.462
573.724
569.931
567.143
567.127
566.399
568.932
575.33
574.613
574.993
572.855
572.985
573.434
571.617
571.329
570.259
575.433
575.223
573.255
572.999
574.211
573.81
572.233
571.918
569.575
569.477
571.633
571.575
574.47
574.407
575.394
574.574
574.309
575.206
572.466
570.269
573.004
576.93
578.664
579.385
579.251
578.228
576.297
577.762
578.391
578.115
576.832
571.616
572.369
572.391
571.649
570.122
568.767
569.462
569.435
568.664
567.135
568.759
569.468
569.455
568.694
567.172
568.013
568.701
568.669
567.896
566.371
570.591
571.319
571.32
570.565
569.036
578.399
579.973
580.611
580.391
579.351
577.583
579.086
579.652
579.365
578.234
577.242
578.497
578.959
578.54
577.163
575.496
576.828
577.274
576.883
575.582
574.874
575.831
576.038
575.428
573.955
575.488
576.586
576.915
576.396
574.969
573.42
574.296
574.433
573.775
572.283
573.166
574.081
574.256
573.628
572.153
572.026
572.871
572.984
572.311
570.818
578.446
579.988
580.602
580.364
579.289
577.357
578.525
578.915
578.442
577.034
575.112
576.036
576.214
575.582
574.095
574.816
575.7
575.84
575.18
573.679
576.14
577.13
577.366
576.775
575.306
575.682
576.62
576.809
576.183
574.697
574.01
574.856
574.961
574.276
572.767
573.667
574.483
574.562
573.858
572.34
571.281
572.062
572.113
571.396
569.884
571.159
571.912
571.936
571.197
569.673
573.401
574.24
574.342
573.657
572.151
573.319
574.132
574.208
573.503
571.987
577.722
579.348
580.015
579.829
578.768
576.766
578.087
578.6
578.229
576.882
577.98
579.366
579.928
579.622
578.417
576.648
577.769
578.123
577.624
576.205
576.253
577.259
577.511
576.933
575.47
577.361
578.549
578.963
578.511
577.113
574.246
575.093
575.2
574.515
573.005
571.964
572.728
572.761
572.026
570.502
574.815
575.694
575.829
575.164
573.662
572.409
573.86
574.443
574.208
573.227
571.322
573.388
573.255
576.028
576.092
573.116
572.876
575.929
575.786
570.55
567.609
570.519
567.874
570.237
570.374
568.351
573.474
573.329
576.146
576.224
573.178
572.938
576.025
575.836
570.405
567.309
570.386
567.653
570.124
570.335
568.165
573.452
573.296
576.188
576.283
573.136
572.889
576.043
575.847
570.281
566.538
570.261
566.991
569.999
570.227
567.614
572.938
572.788
575.733
575.834
572.617
572.331
575.584
575.362
569.566
565.615
569.582
566.102
569.36
569.629
566.851
572.008
571.867
574.789
574.888
571.702
571.369
574.646
574.43
568.623
564.93
568.658
565.32
568.482
568.686
566.051
570.331
570.203
573.049
573.143
570.075
569.798
572.914
572.724
567.144
563.743
567.209
564.111
567.069
567.286
564.849
580.343
580.347
578.412
578.432
580.284
580.227
578.351
578.264
581.736
582.794
581.657
582.621
581.618
581.425
582.285
580.485
580.467
578.542
578.579
580.369
580.27
578.45
578.349
581.94
582.815
581.824
582.605
581.711
581.456
582.25
580.559
580.511
578.602
578.663
580.37
580.232
578.476
578.329
581.861
582.443
581.72
582.254
581.54
581.277
581.925
580.098
580.03
578.153
578.226
579.863
579.68
578.011
577.863
581.272
581.57
581.11
581.396
580.87
580.561
581.086
579.094
579.017
577.182
577.258
578.814
578.57
577.039
576.877
580.146
580.281
579.972
580.143
579.705
579.367
579.884
577.247
577.169
575.386
575.462
576.967
576.755
575.245
575.093
578.274
578.597
578.109
578.447
577.886
577.598
578.185
557.578
558.041
558.943
559.706
560.929
561.706
563.719
564.35
563.195
563.924
561.01
561.746
559.429
560.124
558.168
558.665
561.514
562.471
562.838
564.175
564.899
566.133
566.12
567.703
555.844
552.992
556.345
553.687
557.113
554.367
557.942
555.354
559.923
558.402
561.296
559.371
556.026
557.651
564.507
566.972
565.809
567.662
567.595
569.68
569.15
570.749
561.602
564.165
563.035
564.991
559.304
561.788
549.721
547.816
551.081
549.109
551.104
548.704
552.735
550.537
553.076
549.819
555.557
552.54
557.5
554.518
559.719
556.681
562.173
562.589
564.296
564.492
566.648
567.185
568.349
568.89
560.412
559.829
557.925
557.811
566.113
566.088
567.773
567.432
569.902
570.345
571.377
571.603
562.469
561.518
564.309
562.902
556.625
552.99
555.242
551.168
553.946
550.23
553.139
548.914
558.856
555.314
556.986
552.984
560.845
557.347
558.377
554.43
545.123
540.908
544.452
540.271
546.413
542.489
545.153
541.163
548.526
545.5
546.311
543.02
559.173
564.434
554.422
550.855
547.059
563.676
558.128
552.474
548.664
544.564
565.049
560.088
555.311
550.829
546.502
537.031
535.129
534.956
533.259
539.019
536.835
536.287
534.454
542.394
539.937
538.531
536.349
562.419
560.384
556.372
553.63
550.818
547.989
546.406
543.612
540.669
537.891
564.102
562.427
558.561
555.687
553.395
550.148
548.304
544.827
541.977
538.357
561.158
557.952
563.509
560.661
566.607
565.616
568.72
568.139
558.021
554.291
555.732
551.769
565.525
562.667
566.852
564.132
570.446
569.9
571.71
571.309
560.117
556.312
561.447
557.735
551.837
547.374
544.286
538.933
549.99
545.302
543.037
537.778
553.543
549.22
545.48
540.215
555.161
550.794
547.153
542.165
534.545
533.762
532.314
534.154
533.849
532.532
535.833
534.841
533.29
535.117
534.722
533.291
538.382
537.049
535.293
536.542
535.921
534.301
557.894
555.084
552.149
550.718
548.289
545.735
545.309
543.236
541.02
541.428
539.697
537.598
537.693
536.811
534.9
560.099
556.936
553.605
551.891
548.629
545.385
546.32
543.46
540.589
541.86
539.721
537.212
537.815
536.652
534.437
570.941
571.939
571.868
573.168
568.211
569.444
569.269
570.809
571.499
573.613
571.738
573.711
572.13
574.02
572.586
574.364
574.033
573.139
574.567
573.514
574.397
575.144
574.237
575.49
572.1
573.488
574.653
575.843
575.446
576.588
575.599
576.769
575.746
577.645
575.392
577.175
576.04
577.993
575.982
577.786
576.287
578.427
576.818
578.775
577.227
578.954
578.239
579.666
573.269
574.145
574.49
575.477
570.388
571.147
571.808
572.636
576.375
577.556
575.298
576.378
575.692
576.642
576.897
577.682
573.163
573.932
574.486
575.084
577.44
578.593
578.547
579.521
577.957
579.662
578.932
579.962
577.076
578.905
577.896
579.088
578.836
580.344
579.85
580.726
579.808
581.077
580.667
581.399
575.65
574.701
577.427
576.437
575.679
574.669
577.563
576.529
575.705
574.791
577.771
576.841
572.346
568.937
574.503
576.204
578.025
568.235
571.607
573.616
575.281
577.208
569.569
572.885
575.278
576.899
578.233
573.075
570.849
574.79
572.626
573.192
571.069
575.043
572.961
573.496
571.482
575.536
573.584
567.301
565.593
570.868
569.113
572.922
571.114
574.496
572.652
576.314
574.463
568.971
567.935
572.365
571.314
574.687
573.436
576.192
574.667
577.364
575.485
574.297
573.879
575.659
575.606
571.201
570.882
572.824
572.976
577.495
576.975
576.317
575.495
576.727
576.969
577.766
578.126
574.109
574.544
575.267
575.842
578.46
578.2
579.397
579.24
578.636
577.626
579.187
577.645
577.557
576.283
578.336
576.597
579.536
578.765
579.935
578.586
580.313
579.645
580.617
579.445
567.845
564.894
562.154
568.923
565.58
562.824
568.249
565.259
562.453
569.4
566.031
563.152
568.822
565.879
563.022
570.173
566.634
563.557
563.299
560.474
557.477
566.749
563.801
560.716
568.701
565.613
562.46
570.086
566.995
563.933
571.018
567.284
563.924
566.078
562.996
559.581
569.354
566.189
562.733
571.189
567.823
564.25
572.024
568.476
564.863
571.86
567.931
564.232
578.438
577.12
573.667
567.369
577.88
576.467
572.9
566.552
578.698
577.328
573.864
567.509
578.364
576.854
573.251
566.882
579.027
577.582
574.26
568.088
579.197
577.569
574.019
567.712
579.131
577.319
573.514
567.048
579.536
577.507
573.541
567.02
579.82
578.093
574.622
568.363
579.711
577.876
574.701
569.067
579.252
577.71
574.578
568.773
579.083
577.436
574.493
569.191
580.291
578.382
574.632
568.138
580.266
578.262
574.895
569.124
580.778
578.69
574.8
568.33
580.758
578.604
575.131
569.379
578.328
577.16
574.021
568.092
577.525
576.547
573.874
568.698
578.402
577.197
574.104
568.218
577.56
576.536
573.881
568.757
578.505
577.228
574.236
568.518
577.731
576.603
573.941
568.879
578.537
577.168
574.325
568.941
577.896
576.653
574.023
569.101
578.466
576.994
574.28
569.346
576.301
575.493
573.094
569.411
574.935
574.234
571.798
568.373
576.45
575.571
573.154
569.484
575.089
574.306
571.838
568.401
576.73
575.722
573.247
569.549
575.369
574.444
571.913
568.467
577.139
575.952
573.421
569.705
575.751
574.645
572.035
568.558
577.673
576.256
573.634
569.875
576.202
574.878
572.169
568.652
578.716
576.859
573.936
570.024
577.382
575.57
572.609
568.957
578.2
576.553
573.777
569.938
576.789
575.218
572.385
568.807
579.189
577.148
574.087
570.099
577.938
575.907
572.818
569.121
579.647
577.447
574.29
570.266
578.457
576.238
573.038
569.296
557.884
550.299
543.909
538.788
534.937
557.418
549.924
543.557
538.447
534.603
557.948
550.332
543.93
538.804
534.951
557.522
549.994
543.612
538.494
534.646
558.057
550.381
543.961
538.828
534.972
557.859
550.276
543.869
538.738
534.882
557.688
550.096
543.682
538.548
534.693
557.81
550.183
543.746
538.598
534.736
558.133
550.424
543.989
538.848
534.988
557.769
549.898
543.447
538.313
534.463
558.046
550.292
543.857
538.723
534.867
557.647
549.773
543.331
538.204
534.357
558.149
550.431
543.983
538.835
534.972
557.738
549.847
543.387
538.248
534.396
558.275
550.513
544.042
538.881
535.013
557.777
549.848
543.37
538.221
534.365
557.842
550.137
543.732
538.614
534.766
557.31
549.505
543.105
538.001
534.165
557.856
550.123
543.71
538.589
534.741
557.32
549.498
543.092
537.986
534.149
557.854
550.074
543.649
538.524
534.675
557.322
549.473
543.059
537.949
534.112
557.702
549.849
543.414
538.29
534.442
557.236
549.366
542.946
537.835
533.996
557.382
549.508
543.077
537.959
534.119
526.373
525.215
526.938
525.749
527.925
526.605
529.188
527.637
530.465
528.657
532.519
530.434
531.475
529.432
533.546
531.542
534.612
532.794
513.809
500.319
489.206
480.748
475.138
514.019
500.439
489.202
480.692
474.99
514.066
500.456
489.292
480.811
475.193
514.245
500.535
489.281
480.717
475.027
514.555
500.728
489.469
480.942
475.304
514.718
500.798
489.451
480.842
475.134
515.221
501.121
489.731
481.136
475.469
515.327
501.157
489.689
481.019
475.282
516.005
501.624
490.077
481.396
475.689
515.991
501.582
489.983
481.241
475.472
517.705
502.859
490.991
482.114