/*--------------------------------*- C++ -*----------------------------------*\
  =========                 |
  \\      /  F ield         | OpenFOAM: The Open Source CFD Toolbox
   \\    /   O peration     | Website:  https://openfoam.org
    \\  /    A nd           | Version:  12
     \\/     M anipulation  |
\*---------------------------------------------------------------------------*/
FoamFile
{
    format      ascii;
    class       volScalarField;
    location    "10";
    object      p;
}
// * * * * * * * * * * * * * * * * * * * * * * * * * * * * * * * * * * * * * //

dimensions      [0 2 -2 0 0 0 0];

internalField   nonuniform List<scalar> 
4480
(
0.0109108
0.0109178
0.0109219
0.0109252
0.0109284
0.0109311
0.0109328
0.0109332
0.0109322
0.0109294
0.0109246
0.0109176
0.0109082
0.0108965
0.0108824
0.0108661
0.0108478
0.0108276
0.010806
0.0107832
0.0107596
0.0107356
0.0107113
0.0106872
0.0106635
0.0106404
0.010618
0.0105966
0.0105761
0.0105567
0.0105384
0.0105211
0.010505
0.0104899
0.0104758
0.0104627
0.0104505
0.0104392
0.0104286
0.0104188
0.0104097
0.0104012
0.0103934
0.010386
0.0103791
0.0103727
0.0103667
0.010361
0.0103557
0.0103507
0.0103459
0.0103414
0.0103372
0.0103331
0.0103292
0.0103254
0.0103218
0.0103184
0.010315
0.0103118
0.0103086
0.0103055
0.0103025
0.0102996
0.0102968
0.0102939
0.0102912
0.0102884
0.0102858
0.0102831
0.0102805
0.0102779
0.0102753
0.0102727
0.0102702
0.0102676
0.0102651
0.0102626
0.0102601
0.0102575
0.010255
0.0102525
0.01025
0.0102474
0.0102449
0.0102423
0.0102398
0.0102372
0.0102346
0.0102319
0.0102293
0.0102266
0.0102238
0.010221
0.0102182
0.0102153
0.0102123
0.0102093
0.0102062
0.0102029
0.0101996
0.0101962
0.0101926
0.0101888
0.0101849
0.0101807
0.0101764
0.0101717
0.0101667
0.0101614
0.0101556
0.0101493
0.0101424
0.0101349
0.0101265
0.0101172
0.0101069
0.0100956
0.0100836
0.010072
0.0100625
0.0100573
0.0100803
0.0102674
0.0108164
0.0104893
0.00444203
0.00384704
0.00401608
0.00485843
0.0112393
0.0114116
0.0107164
0.0104412
0.0103562
0.0103118
0.0102803
0.010258
0.0102395
0.0102152
0.0109037
0.0109105
0.0109128
0.0109145
0.0109161
0.0109171
0.0109173
0.0109165
0.0109144
0.0109107
0.0109052
0.0108979
0.0108885
0.010877
0.0108635
0.0108481
0.0108308
0.010812
0.0107919
0.0107707
0.0107488
0.0107264
0.0107038
0.0106813
0.0106591
0.0106373
0.0106161
0.0105957
0.0105762
0.0105576
0.0105399
0.0105232
0.0105074
0.0104926
0.0104787
0.0104657
0.0104536
0.0104423
0.0104317
0.0104218
0.0104126
0.010404
0.010396
0.0103885
0.0103815
0.0103749
0.0103687
0.0103629
0.0103575
0.0103523
0.0103474
0.0103428
0.0103384
0.0103342
0.0103302
0.0103264
0.0103227
0.0103191
0.0103157
0.0103124
0.0103092
0.0103061
0.010303
0.0103
0.0102971
0.0102942
0.0102914
0.0102887
0.0102859
0.0102833
0.0102806
0.010278
0.0102753
0.0102727
0.0102702
0.0102676
0.010265
0.0102625
0.0102599
0.0102574
0.0102548
0.0102522
0.0102497
0.0102471
0.0102445
0.0102419
0.0102392
0.0102366
0.0102339
0.0102312
0.0102284
0.0102256
0.0102227
0.0102198
0.0102168
0.0102137
0.0102106
0.0102073
0.010204
0.0102005
0.0101969
0.0101931
0.0101891
0.0101849
0.0101804
0.0101756
0.0101706
0.0101651
0.0101591
0.0101527
0.0101456
0.0101377
0.0101289
0.0101191
0.0101079
0.0100952
0.0100805
0.0100633
0.010043
0.0100184
0.00998685
0.00994146
0.00987155
0.00976621
0.00953932
0.00870721
0.00706165
0.00679283
0.00699064
0.00755017
0.0092846
0.0100295
0.0101703
0.0102134
0.0102331
0.010235
0.0102291
0.0102219
0.0102131
0.0101901
0.0108999
0.0109078
0.0109101
0.0109116
0.010913
0.010914
0.0109141
0.0109132
0.010911
0.0109074
0.0109019
0.0108946
0.0108853
0.0108738
0.0108604
0.010845
0.0108277
0.010809
0.0107889
0.0107677
0.0107459
0.0107236
0.0107011
0.0106787
0.0106567
0.0106351
0.0106141
0.0105939
0.0105745
0.010556
0.0105385
0.010522
0.0105064
0.0104917
0.010478
0.0104651
0.0104531
0.0104418
0.0104313
0.0104215
0.0104124
0.0104038
0.0103958
0.0103884
0.0103814
0.0103748
0.0103687
0.0103629
0.0103575
0.0103523
0.0103474
0.0103428
0.0103384
0.0103342
0.0103302
0.0103264
0.0103227
0.0103192
0.0103157
0.0103124
0.0103092
0.0103061
0.010303
0.0103
0.0102971
0.0102943
0.0102914
0.0102887
0.0102859
0.0102833
0.0102806
0.0102779
0.0102753
0.0102727
0.0102701
0.0102676
0.010265
0.0102624
0.0102599
0.0102573
0.0102547
0.0102522
0.0102496
0.010247
0.0102444
0.0102418
0.0102391
0.0102365
0.0102338
0.010231
0.0102282
0.0102254
0.0102225
0.0102196
0.0102165
0.0102135
0.0102103
0.010207
0.0102036
0.0102
0.0101963
0.0101925
0.0101884
0.0101841
0.0101796
0.0101747
0.0101695
0.0101639
0.0101578
0.0101511
0.0101438
0.0101357
0.0101266
0.0101164
0.0101047
0.0100912
0.0100755
0.0100568
0.010034
0.0100053
0.00996734
0.00991356
0.00983193
0.00969896
0.0094553
0.00897798
0.00834484
0.00817939
0.00832135
0.00868889
0.00938319
0.00984204
0.010047
0.0101394
0.0101822
0.0101997
0.0102049
0.0102049
0.0101998
0.0101734
0.0108969
0.0109057
0.0109082
0.0109097
0.0109113
0.0109124
0.0109127
0.010912
0.01091
0.0109065
0.0109012
0.010894
0.0108847
0.0108732
0.0108597
0.0108441
0.0108266
0.0108075
0.0107871
0.0107657
0.0107436
0.0107211
0.0106984
0.0106759
0.0106537
0.0106321
0.0106111
0.010591
0.0105717
0.0105534
0.010536
0.0105196
0.0105042
0.0104897
0.0104761
0.0104634
0.0104515
0.0104404
0.01043
0.0104203
0.0104113
0.0104029
0.010395
0.0103876
0.0103807
0.0103742
0.0103682
0.0103624
0.010357
0.0103519
0.0103471
0.0103425
0.0103382
0.010334
0.01033
0.0103262
0.0103226
0.010319
0.0103156
0.0103123
0.0103091
0.010306
0.0103029
0.0103
0.0102971
0.0102942
0.0102914
0.0102886
0.0102859
0.0102832
0.0102806
0.0102779
0.0102753
0.0102727
0.0102701
0.0102675
0.010265
0.0102624
0.0102598
0.0102573
0.0102547
0.0102522
0.0102496
0.010247
0.0102444
0.0102417
0.0102391
0.0102364
0.0102337
0.010231
0.0102282
0.0102253
0.0102225
0.0102195
0.0102165
0.0102134
0.0102102
0.0102069
0.0102035
0.0101999
0.0101962
0.0101924
0.0101883
0.010184
0.0101794
0.0101746
0.0101693
0.0101637
0.0101576
0.0101509
0.0101436
0.0101355
0.0101264
0.0101162
0.0101045
0.010091
0.0100752
0.0100564
0.0100334
0.0100045
0.00996689
0.00991602
0.00984451
0.00974031
0.00958081
0.00933275
0.00903854
0.00895362
0.00905565
0.00928734
0.0096347
0.00988942
0.0100335
0.0101129
0.0101562
0.0101784
0.0101884
0.0101921
0.010189
0.0101609
0.0108941
0.0109034
0.0109059
0.0109076
0.0109093
0.0109106
0.0109112
0.0109108
0.0109092
0.0109059
0.0109009
0.0108938
0.0108845
0.010873
0.0108592
0.0108433
0.0108255
0.010806
0.0107851
0.0107632
0.0107407
0.0107178
0.0106948
0.0106721
0.0106498
0.0106281
0.0106071
0.010587
0.0105678
0.0105497
0.0105325
0.0105163
0.0105011
0.0104868
0.0104734
0.0104609
0.0104492
0.0104383
0.0104282
0.0104187
0.0104098
0.0104015
0.0103938
0.0103865
0.0103797
0.0103733
0.0103674
0.0103617
0.0103564
0.0103514
0.0103466
0.0103421
0.0103378
0.0103336
0.0103297
0.0103259
0.0103223
0.0103188
0.0103154
0.0103121
0.0103089
0.0103058
0.0103028
0.0102999
0.010297
0.0102941
0.0102913
0.0102886
0.0102858
0.0102832
0.0102805
0.0102779
0.0102753
0.0102727
0.0102701
0.0102675
0.0102649
0.0102624
0.0102598
0.0102573
0.0102547
0.0102521
0.0102496
0.010247
0.0102444
0.0102417
0.0102391
0.0102364
0.0102337
0.010231
0.0102282
0.0102253
0.0102224
0.0102195
0.0102165
0.0102134
0.0102102
0.0102069
0.0102035
0.0101999
0.0101962
0.0101924
0.0101883
0.010184
0.0101795
0.0101746
0.0101695
0.0101639
0.0101578
0.0101512
0.010144
0.010136
0.010127
0.010117
0.0101055
0.0100924
0.010077
0.0100589
0.0100369
0.0100099
0.00997579
0.00993168
0.00987373
0.00979704
0.00969505
0.00956211
0.00942646
0.00939289
0.00946622
0.00961024
0.00979152
0.00993938
0.0100385
0.0101019
0.0101411
0.0101637
0.0101756
0.0101812
0.0101796
0.0101519
0.0108916
0.010901
0.0109036
0.0109055
0.0109074
0.0109091
0.0109101
0.0109101
0.0109089
0.010906
0.0109013
0.0108944
0.0108851
0.0108735
0.0108594
0.010843
0.0108246
0.0108045
0.010783
0.0107604
0.0107373
0.0107138
0.0106904
0.0106673
0.0106447
0.0106229
0.0106019
0.0105818
0.0105628
0.0105448
0.0105278
0.0105119
0.0104969
0.0104829
0.0104698
0.0104576
0.0104462
0.0104356
0.0104256
0.0104164
0.0104077
0.0103996
0.0103921
0.010385
0.0103783
0.0103721
0.0103663
0.0103607
0.0103555
0.0103506
0.0103459
0.0103414
0.0103372
0.0103331
0.0103293
0.0103255
0.0103219
0.0103185
0.0103151
0.0103119
0.0103087
0.0103056
0.0103026
0.0102997
0.0102968
0.010294
0.0102912
0.0102885
0.0102858
0.0102831
0.0102804
0.0102778
0.0102752
0.0102726
0.01027
0.0102675
0.0102649
0.0102624
0.0102598
0.0102573
0.0102547
0.0102521
0.0102496
0.010247
0.0102444
0.0102417
0.0102391
0.0102364
0.0102337
0.010231
0.0102282
0.0102254
0.0102225
0.0102196
0.0102166
0.0102135
0.0102103
0.010207
0.0102036
0.0102001
0.0101964
0.0101926
0.0101886
0.0101844
0.0101799
0.0101751
0.01017
0.0101645
0.0101586
0.0101522
0.0101451
0.0101374
0.0101288
0.0101191
0.0101082
0.0100958
0.0100814
0.0100646
0.0100447
0.0100208
0.00999167
0.00995572
0.00991128
0.00985692
0.00979212
0.00971988
0.00965862
0.00965007
0.0097005
0.00979178
0.00989454
0.0099841
0.0100528
0.0101017
0.0101346
0.0101552
0.010167
0.0101733
0.0101726
0.0101472
0.0108894
0.0108985
0.0109012
0.0109033
0.0109056
0.0109077
0.0109093
0.0109099
0.0109092
0.0109069
0.0109026
0.0108959
0.0108867
0.0108748
0.0108603
0.0108433
0.0108242
0.0108031
0.0107807
0.0107572
0.0107332
0.010709
0.010685
0.0106614
0.0106385
0.0106165
0.0105954
0.0105754
0.0105565
0.0105387
0.010522
0.0105064
0.0104917
0.0104781
0.0104653
0.0104535
0.0104424
0.0104321
0.0104224
0.0104135
0.0104051
0.0103972
0.0103899
0.010383
0.0103766
0.0103705
0.0103648
0.0103595
0.0103544
0.0103496
0.010345
0.0103406
0.0103365
0.0103325
0.0103287
0.010325
0.0103215
0.0103181
0.0103148
0.0103116
0.0103084
0.0103054
0.0103024
0.0102995
0.0102966
0.0102938
0.0102911
0.0102883
0.0102857
0.010283
0.0102804
0.0102777
0.0102751
0.0102726
0.01027
0.0102674
0.0102649
0.0102623
0.0102598
0.0102573
0.0102547
0.0102522
0.0102496
0.010247
0.0102444
0.0102418
0.0102392
0.0102365
0.0102338
0.0102311
0.0102283
0.0102255
0.0102227
0.0102197
0.0102168
0.0102137
0.0102105
0.0102073
0.010204
0.0102005
0.0101969
0.0101931
0.0101892
0.010185
0.0101807
0.010176
0.0101711
0.0101658
0.01016
0.0101539
0.0101471
0.0101398
0.0101316
0.0101226
0.0101125
0.010101
0.010088
0.0100731
0.0100558
0.0100355
0.0100117
0.00998373
0.00995111
0.00991401
0.00987384
0.00983476
0.00980748
0.00980922
0.00984366
0.00990251
0.00996782
0.0100245
0.0100717
0.0101082
0.0101344
0.0101519
0.0101626
0.0101686
0.0101685
0.0101469
0.0108876
0.0108958
0.0108985
0.0109009
0.0109037
0.0109064
0.0109087
0.0109101
0.0109102
0.0109085
0.0109047
0.0108984
0.0108891
0.010877
0.0108619
0.0108441
0.0108238
0.0108017
0.010778
0.0107534
0.0107283
0.0107032
0.0106784
0.0106542
0.010631
0.0106087
0.0105875
0.0105676
0.0105489
0.0105314
0.010515
0.0104997
0.0104855
0.0104722
0.0104599
0.0104484
0.0104378
0.0104278
0.0104186
0.0104099
0.0104019
0.0103943
0.0103873
0.0103807
0.0103745
0.0103686
0.0103631
0.0103579
0.010353
0.0103483
0.0103439
0.0103396
0.0103356
0.0103317
0.010328
0.0103244
0.0103209
0.0103176
0.0103143
0.0103112
0.0103081
0.0103051
0.0103021
0.0102993
0.0102964
0.0102936
0.0102909
0.0102882
0.0102855
0.0102829
0.0102803
0.0102777
0.0102751
0.0102725
0.01027
0.0102674
0.0102649
0.0102623
0.0102598
0.0102573
0.0102547
0.0102522
0.0102496
0.0102471
0.0102445
0.0102419
0.0102393
0.0102366
0.010234
0.0102312
0.0102285
0.0102257
0.0102229
0.01022
0.0102171
0.010214
0.0102109
0.0102077
0.0102045
0.0102011
0.0101975
0.0101939
0.01019
0.010186
0.0101818
0.0101773
0.0101725
0.0101675
0.010162
0.0101562
0.0101498
0.010143
0.0101354
0.0101271
0.010118
0.0101077
0.0100963
0.0100833
0.0100687
0.0100521
0.0100334
0.0100123
0.00998903
0.00996437
0.00993999
0.00991915
0.00990775
0.00991331
0.00993746
0.00997595
0.0100197
0.0100585
0.0100912
0.0101178
0.0101381
0.0101524
0.0101615
0.0101669
0.0101672
0.0101503
0.0108859
0.0108927
0.0108954
0.0108982
0.0109016
0.010905
0.0109081
0.0109104
0.0109115
0.0109107
0.0109076
0.0109015
0.0108923
0.0108798
0.0108639
0.010845
0.0108235
0.0107998
0.0107747
0.0107486
0.0107222
0.010696
0.0106703
0.0106455
0.0106218
0.0105993
0.0105781
0.0105583
0.0105398
0.0105226
0.0105067
0.0104919
0.0104781
0.0104654
0.0104536
0.0104426
0.0104324
0.0104229
0.0104141
0.0104059
0.0103982
0.010391
0.0103843
0.0103779
0.010372
0.0103664
0.0103611
0.0103561
0.0103514
0.0103469
0.0103426
0.0103385
0.0103345
0.0103308
0.0103271
0.0103236
0.0103203
0.010317
0.0103138
0.0103107
0.0103077
0.0103047
0.0103018
0.010299
0.0102962
0.0102934
0.0102907
0.010288
0.0102854
0.0102828
0.0102802
0.0102776
0.010275
0.0102725
0.0102699
0.0102674
0.0102649
0.0102623
0.0102598
0.0102573
0.0102548
0.0102522
0.0102497
0.0102472
0.0102446
0.010242
0.0102394
0.0102368
0.0102341
0.0102315
0.0102287
0.010226
0.0102232
0.0102203
0.0102174
0.0102145
0.0102114
0.0102083
0.0102051
0.0102018
0.0101984
0.0101948
0.0101911
0.0101872
0.0101832
0.0101789
0.0101744
0.0101696
0.0101645
0.010159
0.0101531
0.0101468
0.01014
0.0101325
0.0101243
0.0101154
0.0101055
0.0100946
0.0100826
0.0100694
0.0100549
0.0100394
0.0100232
0.0100071
0.00999263
0.00998189
0.00997812
0.00998469
0.0100022
0.0100281
0.0100577
0.0100855
0.0101093
0.0101288
0.0101442
0.0101556
0.0101632
0.0101678
0.0101685
0.0101564
0.0108841
0.0108889
0.0108917
0.0108949
0.0108989
0.0109032
0.0109073
0.0109108
0.0109131
0.0109133
0.010911
0.0109054
0.0108962
0.0108831
0.0108663
0.010846
0.0108227
0.0107973
0.0107703
0.0107425
0.0107146
0.0106871
0.0106604
0.0106349
0.0106108
0.0105881
0.0105669
0.0105473
0.0105292
0.0105125
0.0104971
0.0104828
0.0104697
0.0104575
0.0104463
0.0104359
0.0104263
0.0104173
0.010409
0.0104012
0.010394
0.0103872
0.0103808
0.0103748
0.0103692
0.0103639
0.0103588
0.0103541
0.0103495
0.0103452
0.0103411
0.0103372
0.0103334
0.0103297
0.0103262
0.0103228
0.0103195
0.0103163
0.0103132
0.0103102
0.0103072
0.0103043
0.0103014
0.0102986
0.0102959
0.0102932
0.0102905
0.0102878
0.0102852
0.0102826
0.01028
0.0102775
0.0102749
0.0102724
0.0102699
0.0102674
0.0102649
0.0102623
0.0102598
0.0102573
0.0102548
0.0102523
0.0102498
0.0102473
0.0102447
0.0102422
0.0102396
0.010237
0.0102344
0.0102317
0.010229
0.0102263
0.0102236
0.0102208
0.0102179
0.010215
0.010212
0.010209
0.0102059
0.0102027
0.0101994
0.0101959
0.0101924
0.0101887
0.0101848
0.0101808
0.0101765
0.010172
0.0101673
0.0101623
0.0101569
0.0101512
0.010145
0.0101384
0.0101313
0.0101236
0.0101153
0.0101063
0.0100966
0.0100863
0.0100754
0.0100643
0.0100532
0.010043
0.0100346
0.0100295
0.0100294
0.0100358
0.0100488
0.0100669
0.0100874
0.0101074
0.0101252
0.01014
0.0101518
0.0101607
0.010167
0.0101709
0.0101719
0.0101646
0.0108819
0.0108843
0.010887
0.0108907
0.0108954
0.0109008
0.0109062
0.0109111
0.0109147
0.0109163
0.0109149
0.0109099
0.0109006
0.0108868
0.0108687
0.0108466
0.0108213
0.0107936
0.0107644
0.0107346
0.0107049
0.010676
0.0106483
0.0106221
0.0105975
0.0105748
0.0105538
0.0105346
0.0105169
0.0105008
0.0104861
0.0104725
0.0104601
0.0104487
0.0104382
0.0104284
0.0104194
0.0104111
0.0104033
0.0103961
0.0103893
0.010383
0.010377
0.0103714
0.0103661
0.0103611
0.0103563
0.0103518
0.0103475
0.0103434
0.0103395
0.0103357
0.0103321
0.0103285
0.0103251
0.0103219
0.0103187
0.0103156
0.0103125
0.0103096
0.0103067
0.0103038
0.010301
0.0102983
0.0102955
0.0102929
0.0102902
0.0102876
0.010285
0.0102824
0.0102799
0.0102774
0.0102748
0.0102723
0.0102698
0.0102673
0.0102648
0.0102624
0.0102599
0.0102574
0.0102549
0.0102524
0.0102499
0.0102474
0.0102449
0.0102423
0.0102398
0.0102372
0.0102346
0.010232
0.0102294
0.0102267
0.010224
0.0102213
0.0102185
0.0102156
0.0102127
0.0102098
0.0102068
0.0102037
0.0102005
0.0101972
0.0101938
0.0101903
0.0101866
0.0101829
0.0101789
0.0101747
0.0101704
0.0101658
0.010161
0.0101558
0.0101504
0.0101447
0.0101385
0.0101321
0.0101252
0.0101179
0.0101103
0.0101024
0.0100944
0.0100865
0.0100792
0.0100728
0.0100683
0.0100664
0.010068
0.0100738
0.0100837
0.0100968
0.0101114
0.010126
0.0101393
0.0101508
0.0101601
0.0101672
0.0101724
0.0101757
0.010177
0.0101739
0.0108791
0.0108783
0.0108809
0.0108852
0.0108908
0.0108973
0.0109042
0.0109107
0.0109161
0.0109193
0.0109191
0.0109147
0.0109053
0.0108906
0.0108708
0.0108465
0.0108186
0.0107882
0.0107564
0.0107242
0.0106926
0.0106622
0.0106334
0.0106065
0.0105818
0.0105591
0.0105385
0.0105198
0.0105029
0.0104876
0.0104736
0.010461
0.0104494
0.0104388
0.0104291
0.0104202
0.0104119
0.0104042
0.0103971
0.0103904
0.0103842
0.0103783
0.0103728
0.0103676
0.0103627
0.010358
0.0103536
0.0103494
0.0103453
0.0103414
0.0103377
0.0103341
0.0103306
0.0103273
0.010324
0.0103208
0.0103178
0.0103147
0.0103118
0.0103089
0.0103061
0.0103033
0.0103006
0.0102979
0.0102952
0.0102926
0.01029
0.0102874
0.0102848
0.0102823
0.0102797
0.0102772
0.0102747
0.0102723
0.0102698
0.0102673
0.0102648
0.0102624
0.0102599
0.0102574
0.010255
0.0102525
0.01025
0.0102475
0.010245
0.0102425
0.01024
0.0102375
0.0102349
0.0102324
0.0102298
0.0102271
0.0102245
0.0102218
0.0102191
0.0102163
0.0102135
0.0102107
0.0102078
0.0102048
0.0102017
0.0101986
0.0101954
0.0101921
0.0101886
0.0101851
0.0101814
0.0101776
0.0101737
0.0101695
0.0101652
0.0101607
0.010156
0.0101511
0.0101459
0.0101405
0.0101349
0.0101291
0.0101233
0.0101174
0.0101116
0.0101062
0.0101015
0.0100978
0.0100957
0.0100955
0.0100979
0.0101031
0.0101108
0.0101206
0.0101314
0.0101422
0.0101523
0.0101612
0.0101686
0.0101745
0.0101788
0.0101817
0.0101833
0.010184
0.0108749
0.0108703
0.0108729
0.010878
0.0108846
0.0108924
0.0109009
0.0109094
0.0109169
0.010922
0.0109233
0.0109196
0.01091
0.0108941
0.0108722
0.0108451
0.010814
0.0107803
0.0107454
0.0107106
0.0106768
0.0106448
0.0106151
0.0105878
0.010563
0.0105406
0.0105207
0.0105029
0.0104869
0.0104726
0.0104597
0.0104481
0.0104376
0.010428
0.0104192
0.0104111
0.0104037
0.0103968
0.0103903
0.0103843
0.0103787
0.0103734
0.0103683
0.0103636
0.0103591
0.0103548
0.0103507
0.0103467
0.0103429
0.0103393
0.0103358
0.0103324
0.0103291
0.0103259
0.0103228
0.0103197
0.0103168
0.0103139
0.010311
0.0103082
0.0103055
0.0103027
0.0103001
0.0102974
0.0102948
0.0102922
0.0102897
0.0102871
0.0102846
0.0102821
0.0102796
0.0102771
0.0102746
0.0102722
0.0102697
0.0102673
0.0102648
0.0102624
0.0102599
0.0102575
0.010255
0.0102526
0.0102501
0.0102477
0.0102452
0.0102427
0.0102403
0.0102378
0.0102353
0.0102327
0.0102302
0.0102276
0.010225
0.0102224
0.0102198
0.0102171
0.0102144
0.0102116
0.0102088
0.010206
0.010203
0.0102001
0.010197
0.0101939
0.0101908
0.0101875
0.0101841
0.0101807
0.0101771
0.0101734
0.0101696
0.0101657
0.0101616
0.0101574
0.0101531
0.0101488
0.0101443
0.0101398
0.0101354
0.0101311
0.0101271
0.0101236
0.0101207
0.0101188
0.0101182
0.0101191
0.0101218
0.0101263
0.0101325
0.0101401
0.0101483
0.0101565
0.0101643
0.0101712
0.0101772
0.0101821
0.0101859
0.0101885
0.0101905
0.0101942
0.0108688
0.0108598
0.0108623
0.0108683
0.0108762
0.0108856
0.010896
0.0109065
0.0109164
0.0109238
0.010927
0.0109242
0.0109143
0.0108967
0.0108721
0.0108414
0.0108063
0.0107687
0.0107303
0.0106925
0.0106566
0.0106231
0.0105926
0.0105651
0.0105407
0.0105191
0.0105002
0.0104836
0.0104689
0.0104559
0.0104443
0.010434
0.0104246
0.0104162
0.0104085
0.0104014
0.0103949
0.0103888
0.0103831
0.0103778
0.0103728
0.0103681
0.0103636
0.0103593
0.0103552
0.0103513
0.0103475
0.0103439
0.0103404
0.010337
0.0103338
0.0103306
0.0103275
0.0103244
0.0103215
0.0103186
0.0103157
0.0103129
0.0103102
0.0103075
0.0103048
0.0103022
0.0102996
0.010297
0.0102944
0.0102919
0.0102894
0.0102868
0.0102844
0.0102819
0.0102794
0.010277
0.0102745
0.0102721
0.0102697
0.0102672
0.0102648
0.0102624
0.01026
0.0102575
0.0102551
0.0102527
0.0102503
0.0102478
0.0102454
0.010243
0.0102405
0.0102381
0.0102356
0.0102331
0.0102306
0.0102281
0.0102256
0.010223
0.0102205
0.0102179
0.0102152
0.0102126
0.0102099
0.0102072
0.0102044
0.0102016
0.0101988
0.0101959
0.0101929
0.0101899
0.0101869
0.0101838
0.0101806
0.0101773
0.010174
0.0101706
0.0101672
0.0101637
0.0101602
0.0101567
0.0101532
0.0101498
0.0101466
0.0101436
0.0101409
0.0101388
0.0101373
0.0101366
0.0101369
0.0101384
0.0101412
0.0101452
0.0101503
0.0101563
0.0101627
0.0101692
0.0101753
0.0101809
0.0101859
0.01019
0.0101934
0.0101958
0.010198
0.0102042
0.0108599
0.0108459
0.0108482
0.0108552
0.0108645
0.010876
0.0108887
0.0109016
0.0109138
0.0109241
0.0109295
0.0109278
0.0109173
0.0108977
0.0108695
0.0108343
0.0107945
0.0107522
0.0107098
0.0106689
0.0106307
0.010596
0.0105651
0.010538
0.0105144
0.0104941
0.0104768
0.0104617
0.0104487
0.0104374
0.0104274
0.0104186
0.0104106
0.0104035
0.010397
0.010391
0.0103855
0.0103803
0.0103755
0.0103709
0.0103666
0.0103625
0.0103586
0.0103548
0.0103512
0.0103477
0.0103443
0.010341
0.0103378
0.0103347
0.0103317
0.0103287
0.0103258
0.0103229
0.0103201
0.0103174
0.0103146
0.010312
0.0103093
0.0103067
0.0103041
0.0103016
0.010299
0.0102965
0.010294
0.0102915
0.010289
0.0102866
0.0102841
0.0102817
0.0102792
0.0102768
0.0102744
0.010272
0.0102696
0.0102672
0.0102648
0.0102624
0.01026
0.0102576
0.0102552
0.0102528
0.0102504
0.010248
0.0102456
0.0102432
0.0102408
0.0102384
0.010236
0.0102335
0.0102311
0.0102286
0.0102262
0.0102237
0.0102212
0.0102187
0.0102161
0.0102136
0.010211
0.0102085
0.0102059
0.0102032
0.0102006
0.0101979
0.0101952
0.0101924
0.0101896
0.0101868
0.010184
0.0101812
0.0101783
0.0101754
0.0101726
0.0101697
0.0101669
0.0101642
0.0101616
0.0101591
0.0101568
0.0101549
0.0101533
0.0101521
0.0101516
0.0101517
0.0101527
0.0101545
0.0101573
0.0101609
0.0101653
0.0101702
0.0101754
0.0101806
0.0101856
0.0101902
0.0101943
0.010198
0.010201
0.0102033
0.0102058
0.0102139
0.010847
0.0108275
0.0108297
0.0108378
0.0108487
0.0108624
0.0108779
0.0108938
0.0109086
0.0109218
0.01093
0.0109295
0.0109183
0.0108958
0.0108631
0.0108224
0.0107767
0.0107291
0.0106822
0.010638
0.0105979
0.0105625
0.0105318
0.0105057
0.0104837
0.0104654
0.0104501
0.0104372
0.0104264
0.010417
0.010409
0.0104019
0.0103956
0.01039
0.0103848
0.0103801
0.0103756
0.0103715
0.0103675
0.0103638
0.0103602
0.0103567
0.0103534
0.0103501
0.010347
0.0103439
0.0103409
0.010338
0.0103351
0.0103323
0.0103295
0.0103267
0.010324
0.0103214
0.0103187
0.0103161
0.0103135
0.010311
0.0103084
0.0103059
0.0103034
0.0103009
0.0102984
0.010296
0.0102935
0.0102911
0.0102887
0.0102863
0.0102839
0.0102815
0.0102791
0.0102767
0.0102743
0.0102719
0.0102695
0.0102672
0.0102648
0.0102624
0.01026
0.0102577
0.0102553
0.0102529
0.0102506
0.0102482
0.0102458
0.0102435
0.0102411
0.0102387
0.0102363
0.0102339
0.0102315
0.0102291
0.0102267
0.0102243
0.0102219
0.0102195
0.0102171
0.0102146
0.0102122
0.0102097
0.0102073
0.0102048
0.0102023
0.0101999
0.0101974
0.0101949
0.0101924
0.0101899
0.0101874
0.010185
0.0101825
0.0101801
0.0101778
0.0101755
0.0101733
0.0101712
0.0101693
0.0101676
0.0101661
0.010165
0.0101642
0.0101638
0.010164
0.0101647
0.0101661
0.0101682
0.0101709
0.0101742
0.010178
0.0101821
0.0101865
0.0101908
0.010195
0.0101989
0.0102025
0.0102058
0.0102086
0.0102108
0.0102135
0.0102231
0.0108289
0.0108034
0.0108056
0.0108148
0.0108274
0.0108435
0.0108623
0.0108819
0.0108999
0.0109158
0.0109272
0.0109283
0.0109161
0.0108898
0.0108513
0.0108037
0.0107511
0.0106973
0.0106457
0.0105984
0.0105568
0.0105213
0.0104917
0.0104676
0.0104481
0.0104326
0.0104201
0.01041
0.0104018
0.0103949
0.0103891
0.0103841
0.0103797
0.0103757
0.0103721
0.0103686
0.0103654
0.0103623
0.0103593
0.0103564
0.0103536
0.0103508
0.0103481
0.0103454
0.0103427
0.0103401
0.0103375
0.0103349
0.0103323
0.0103298
0.0103272
0.0103247
0.0103222
0.0103198
0.0103173
0.0103148
0.0103124
0.0103099
0.0103075
0.0103051
0.0103027
0.0103003
0.0102979
0.0102955
0.0102931
0.0102907
0.0102883
0.010286
0.0102836
0.0102812
0.0102789
0.0102765
0.0102742
0.0102718
0.0102695
0.0102671
0.0102648
0.0102624
0.0102601
0.0102577
0.0102554
0.0102531
0.0102507
0.0102484
0.010246
0.0102437
0.0102414
0.010239
0.0102367
0.0102343
0.010232
0.0102297
0.0102273
0.010225
0.0102227
0.0102203
0.010218
0.0102157
0.0102134
0.010211
0.0102087
0.0102064
0.0102041
0.0102018
0.0101996
0.0101973
0.0101951
0.0101929
0.0101907
0.0101886
0.0101866
0.0101846
0.0101827
0.0101809
0.0101793
0.0101778
0.0101765
0.0101754
0.0101746
0.0101741
0.0101739
0.0101741
0.0101748
0.010176
0.0101777
0.0101798
0.0101825
0.0101855
0.0101889
0.0101926
0.0101963
0.0102001
0.0102037
0.0102071
0.0102103
0.0102133
0.010216
0.0102182
0.010221
0.0102317
0.0108042
0.0107728
0.0107745
0.0107849
0.0107992
0.0108178
0.0108401
0.010864
0.0108865
0.0109053
0.0109201
0.010923
0.0109092
0.010878
0.0108322
0.0107761
0.0107153
0.0106547
0.0105981
0.0105481
0.0105059
0.0104714
0.0104442
0.0104232
0.0104074
0.0103956
0.0103868
0.0103801
0.0103751
0.0103712
0.010368
0.0103654
0.010363
0.0103609
0.0103588
0.0103568
0.0103549
0.0103529
0.0103509
0.0103489
0.0103468
0.0103448
0.0103427
0.0103405
0.0103384
0.0103362
0.010334
0.0103318
0.0103295
0.0103273
0.010325
0.0103227
0.0103204
0.0103181
0.0103158
0.0103135
0.0103112
0.0103089
0.0103066
0.0103043
0.0103019
0.0102996
0.0102973
0.010295
0.0102926
0.0102903
0.010288
0.0102857
0.0102833
0.010281
0.0102787
0.0102764
0.010274
0.0102717
0.0102694
0.0102671
0.0102648
0.0102624
0.0102601
0.0102578
0.0102555
0.0102532
0.0102509
0.0102486
0.0102463
0.0102439
0.0102416
0.0102394
0.0102371
0.0102348
0.0102325
0.0102302
0.0102279
0.0102257
0.0102234
0.0102212
0.0102189
0.0102167
0.0102145
0.0102123
0.0102101
0.010208
0.0102058
0.0102037
0.0102017
0.0101997
0.0101977
0.0101958
0.0101939
0.0101921
0.0101904
0.0101888
0.0101874
0.010186
0.0101848
0.0101838
0.010183
0.0101825
0.0101822
0.0101822
0.0101825
0.0101832
0.0101843
0.0101858
0.0101876
0.0101899
0.0101925
0.0101954
0.0101985
0.0102018
0.0102051
0.0102084
0.0102117
0.0102148
0.0102177
0.0102205
0.0102231
0.0102253
0.0102282
0.0102397
0.0107715
0.0107344
0.0107356
0.0107467
0.0107625
0.0107836
0.0108096
0.0108385
0.0108663
0.0108889
0.0109071
0.0109121
0.0108961
0.0108586
0.0108034
0.0107371
0.0106668
0.0105987
0.0105375
0.0104856
0.010444
0.0104121
0.0103888
0.0103725
0.0103615
0.0103545
0.0103502
0.0103478
0.0103466
0.010346
0.0103459
0.0103458
0.0103458
0.0103456
0.0103453
0.0103448
0.0103442
0.0103434
0.0103424
0.0103413
0.0103401
0.0103387
0.0103372
0.0103357
0.010334
0.0103323
0.0103305
0.0103286
0.0103267
0.0103248
0.0103227
0.0103207
0.0103186
0.0103165
0.0103144
0.0103122
0.0103101
0.0103079
0.0103057
0.0103034
0.0103012
0.010299
0.0102967
0.0102945
0.0102922
0.0102899
0.0102876
0.0102854
0.0102831
0.0102808
0.0102785
0.0102762
0.0102739
0.0102716
0.0102693
0.010267
0.0102647
0.0102624
0.0102602
0.0102579
0.0102556
0.0102533
0.010251
0.0102487
0.0102465
0.0102442
0.0102419
0.0102397
0.0102374
0.0102352
0.0102329
0.0102307
0.0102285
0.0102263
0.0102241
0.010222
0.0102198
0.0102177
0.0102156
0.0102135
0.0102115
0.0102095
0.0102075
0.0102056
0.0102037
0.0102019
0.0102002
0.0101985
0.0101969
0.0101955
0.0101941
0.0101928
0.0101917
0.0101908
0.01019
0.0101894
0.010189
0.0101889
0.0101891
0.0101895
0.0101902
0.0101912
0.0101926
0.0101943
0.0101963
0.0101986
0.0102012
0.010204
0.0102069
0.0102099
0.010213
0.010216
0.010219
0.0102218
0.0102246
0.0102273
0.0102298
0.010232
0.010235
0.0102471
0.0107288
0.0106869
0.0106877
0.0106988
0.0107157
0.0107391
0.010769
0.0108033
0.0108375
0.0108654
0.0108869
0.0108941
0.0108752
0.0108295
0.0107627
0.0106841
0.010603
0.0105273
0.010462
0.0104096
0.0103704
0.0103431
0.0103255
0.0103154
0.0103106
0.0103095
0.0103108
0.0103133
0.0103165
0.0103198
0.0103229
0.0103257
0.0103281
0.0103301
0.0103316
0.0103327
0.0103334
0.0103338
0.0103339
0.0103338
0.0103333
0.0103327
0.0103319
0.0103309
0.0103297
0.0103284
0.010327
0.0103255
0.010324
0.0103223
0.0103205
0.0103187
0.0103169
0.0103149
0.010313
0.010311
0.0103089
0.0103069
0.0103048
0.0103026
0.0103005
0.0102983
0.0102961
0.010294
0.0102917
0.0102895
0.0102873
0.0102851
0.0102828
0.0102806
0.0102783
0.0102761
0.0102738
0.0102715
0.0102693
0.010267
0.0102647
0.0102625
0.0102602
0.0102579
0.0102557
0.0102534
0.0102512
0.0102489
0.0102467
0.0102444
0.0102422
0.01024
0.0102378
0.0102356
0.0102334
0.0102312
0.0102291
0.010227
0.0102248
0.0102228
0.0102207
0.0102187
0.0102167
0.0102147
0.0102128
0.0102109
0.0102091
0.0102074
0.0102057
0.0102041
0.0102026
0.0102011
0.0101998
0.0101986
0.0101975
0.0101965
0.0101958
0.0101951
0.0101947
0.0101945
0.0101945
0.0101947
0.0101952
0.010196
0.010197
0.0101983
0.0101999
0.0102018
0.0102039
0.0102063
0.0102088
0.0102115
0.0102143
0.0102172
0.0102201
0.0102229
0.0102256
0.0102283
0.010231
0.0102336
0.0102361
0.0102382
0.0102414
0.0102538
0.0106747
0.0106294
0.0106295
0.0106404
0.0106575
0.0106826
0.0107161
0.0107563
0.0107981
0.0108332
0.0108584
0.0108676
0.010845
0.0107888
0.0107077
0.0106145
0.0105216
0.0104384
0.0103703
0.0103194
0.0102849
0.0102645
0.0102547
0.0102525
0.0102554
0.0102615
0.0102691
0.0102773
0.0102854
0.0102929
0.0102996
0.0103054
0.0103104
0.0103146
0.010318
0.0103207
0.0103228
0.0103244
0.0103256
0.0103263
0.0103267
0.0103268
0.0103266
0.0103262
0.0103255
0.0103247
0.0103237
0.0103225
0.0103213
0.0103199
0.0103184
0.0103168
0.0103151
0.0103134
0.0103116
0.0103097
0.0103078
0.0103059
0.0103039
0.0103018
0.0102998
0.0102977
0.0102956
0.0102935
0.0102913
0.0102891
0.010287
0.0102848
0.0102826
0.0102803
0.0102781
0.0102759
0.0102737
0.0102714
0.0102692
0.0102669
0.0102647
0.0102625
0.0102602
0.010258
0.0102557
0.0102535
0.0102513
0.0102491
0.0102469
0.0102447
0.0102425
0.0102403
0.0102381
0.010236
0.0102338
0.0102317
0.0102296
0.0102276
0.0102255
0.0102235
0.0102215
0.0102196
0.0102177
0.0102159
0.0102141
0.0102123
0.0102107
0.0102091
0.0102076
0.0102061
0.0102048
0.0102036
0.0102025
0.0102015
0.0102007
0.0102
0.0101995
0.0101991
0.010199
0.0101991
0.0101994
0.0101999
0.0102007
0.0102017
0.010203
0.0102046
0.0102063
0.0102084
0.0102106
0.010213
0.0102155
0.0102182
0.0102209
0.0102236
0.0102264
0.0102291
0.0102317
0.0102343
0.0102368
0.0102394
0.0102419
0.010244
0.0102472
0.0102599
0.0106079
0.0105613
0.0105606
0.0105704
0.0105866
0.0106124
0.0106491
0.0106954
0.010746
0.0107903
0.0108208
0.010832
0.0108045
0.0107351
0.0106363
0.0105262
0.0104208