/*--------------------------------*- C++ -*----------------------------------*\
  =========                 |
  \\      /  F ield         | OpenFOAM: The Open Source CFD Toolbox
   \\    /   O peration     | Website:  https://openfoam.org
    \\  /    A nd           | Version:  12
     \\/     M anipulation  |
\*---------------------------------------------------------------------------*/
FoamFile
{
    format      ascii;
    class       surfaceScalarField;
    location    "10";
    object      phi;
}
// * * * * * * * * * * * * * * * * * * * * * * * * * * * * * * * * * * * * * //

dimensions      [0 3 -1 0 0 0 0];

internalField   nonuniform List<scalar> 
8788
(
2.44559e-07
-2.44559e-07
6.08575e-07
-3.64016e-07
1.07244e-06
-4.63865e-07
1.6381e-06
-5.65662e-07
2.30412e-06
-6.66021e-07
3.06603e-06
-7.6191e-07
3.91741e-06
-8.51373e-07
4.84975e-06
-9.32343e-07
5.85217e-06
-1.00241e-06
6.91122e-06
-1.05905e-06
8.01108e-06
-1.09986e-06
9.13387e-06
-1.1228e-06
1.02603e-05
-1.12648e-06
1.13707e-05
-1.11032e-06
1.24454e-05
-1.07469e-06
1.34663e-05
-1.02089e-06
1.44173e-05
-9.51094e-07
1.52855e-05
-8.68124e-07
1.60607e-05
-7.75269e-07
1.67367e-05
-6.76006e-07
1.73105e-05
-5.73774e-07
1.77823e-05
-4.71771e-07
1.81551e-05
-3.72801e-07
1.84343e-05
-2.79182e-07
1.8627e-05
-1.92699e-07
1.87416e-05
-1.14608e-07
1.87872e-05
-4.56577e-08
1.87734e-05
1.38372e-08
1.87092e-05
6.41632e-08
1.86037e-05
1.05518e-07
1.84651e-05
1.386e-07
1.8301e-05
1.64108e-07
1.81182e-05
1.82839e-07
1.79225e-05
1.95629e-07
1.77192e-05
2.03312e-07
1.75125e-05
2.06689e-07
1.7306e-05
2.06512e-07
1.71026e-05
2.03466e-07
1.69044e-05
1.98161e-07
1.67133e-05
1.91134e-07
1.65304e-05
1.82846e-07
1.63567e-05
1.73689e-07
1.61928e-05
1.63987e-07
1.60387e-05
1.54007e-07
1.58948e-05
1.43963e-07
1.57608e-05
1.34023e-07
1.56364e-05
1.24316e-07
1.55215e-05
1.14938e-07
1.54155e-05
1.05958e-07
1.53181e-05
9.7422e-08
1.52288e-05
8.93583e-08
1.5147e-05
8.178e-08
1.50723e-05
7.46888e-08
1.50042e-05
6.80775e-08
1.49423e-05
6.19322e-08
1.48861e-05
5.62343e-08
1.48351e-05
5.09614e-08
1.4789e-05
4.6089e-08
1.47474e-05
4.15911e-08
1.471e-05
3.74411e-08
1.46764e-05
3.36119e-08
1.46463e-05
3.0077e-08
1.46195e-05
2.68103e-08
1.45957e-05
2.37862e-08
1.45747e-05
2.098e-08
1.45563e-05
1.8368e-08
1.45404e-05
1.59271e-08
1.45268e-05
1.36351e-08
1.45153e-05
1.14706e-08
1.45059e-05
9.41286e-09
1.44985e-05
7.44162e-09
1.44929e-05
5.53719e-09
1.44892e-05
3.68031e-09
1.44874e-05
1.85232e-09
1.44874e-05
3.31361e-11
1.44891e-05
-1.7924e-09
1.44928e-05
-3.64438e-09
1.44983e-05
-5.54127e-09
1.45058e-05
-7.50444e-09
1.45154e-05
-9.55645e-09
1.45271e-05
-1.17211e-08
1.45411e-05
-1.40238e-08
1.45576e-05
-1.64917e-08
1.45768e-05
-1.91544e-08
1.45988e-05
-2.20441e-08
1.4624e-05
-2.51962e-08
1.46527e-05
-2.865e-08
1.46851e-05
-3.24491e-08
1.47218e-05
-3.66424e-08
1.47631e-05
-4.12851e-08
1.48095e-05
-4.64391e-08
1.48617e-05
-5.2175e-08
1.49202e-05
-5.8573e-08
1.4986e-05
-6.57252e-08
1.50597e-05
-7.37368e-08
1.51424e-05
-8.27296e-08
1.52353e-05
-9.28444e-08
1.53395e-05
-1.04245e-07
1.54566e-05
-1.17122e-07
1.55883e-05
-1.31701e-07
1.57366e-05
-1.48246e-07
1.59037e-05
-1.67069e-07
1.60922e-05
-1.88545e-07
1.63053e-05
-2.13118e-07
1.65466e-05
-2.41327e-07
1.68205e-05
-2.73822e-07
1.71319e-05
-3.11395e-07
1.74869e-05
-3.55018e-07
1.78928e-05
-4.05891e-07
1.83583e-05
-4.65507e-07
1.8894e-05
-5.35733e-07
1.95129e-05
-6.18923e-07
2.0231e-05
-7.18059e-07
2.10679e-05
-8.36931e-07
2.20483e-05
-9.80356e-07
2.32027e-05
-1.15444e-06
2.45696e-05
-1.36688e-06
2.61968e-05
-1.62719e-06
2.81445e-05
-1.94767e-06
3.04943e-05
-2.34981e-06
3.33836e-05
-2.88936e-06
3.70873e-05
-3.70364e-06
4.21456e-05
-5.05833e-06
5.00062e-05
-7.86056e-06
6.7916e-05
-1.79098e-05
0.000129985
-6.20688e-05
7.04901e-05
-0.000160867
1.55612e-05
-0.000213081
-4.23229e-05
-0.000218791
-0.00010767
-0.000169607
-4.26745e-05
-6.49953e-05
-2.3813e-05
-1.88615e-05
-1.58474e-05
-7.96553e-06
-1.10368e-05
-4.81062e-06
-7.71489e-06
-3.32192e-06
-5.24533e-06
-2.46957e-06
-3.32883e-06
-1.9165e-06
-1.83766e-06
-1.49117e-06
-7.13207e-07
-1.12445e-06
-7.13207e-07
3.57378e-07
-6.01937e-07
8.11425e-07
-8.18063e-07
1.38467e-06
-1.03711e-06
2.0754e-06
-1.25639e-06
2.88211e-06
-1.47273e-06
3.80136e-06
-1.68116e-06
4.82677e-06
-1.87678e-06
5.9489e-06
-2.05448e-06
7.15517e-06
-2.20868e-06
8.42978e-06
-2.33367e-06
9.75396e-06
-2.42404e-06
1.11064e-05
-2.47527e-06
1.24642e-05
-2.48421e-06
1.38034e-05
-2.44958e-06
1.51009e-05
-2.37213e-06
1.63347e-05
-2.25474e-06
1.74858e-05
-2.10214e-06
1.85382e-05
-1.92055e-06
1.94801e-05
-1.71717e-06
2.03037e-05
-1.49962e-06
2.10054e-05
-1.27544e-06
2.15852e-05
-1.05162e-06
2.20467e-05
-8.34307e-07
2.23961e-05
-6.28586e-07
2.26418e-05
-4.38368e-07
2.27936e-05
-2.6641e-07
2.28623e-05
-1.14373e-07
2.28591e-05
1.71118e-08
2.2795e-05
1.28253e-07
2.26806e-05
2.19929e-07
2.25258e-05
2.93397e-07
2.23396e-05
3.50227e-07
2.21303e-05
3.92162e-07
2.19049e-05
4.21029e-07
2.16696e-05
4.38649e-07
2.14295e-05
4.46778e-07
2.11889e-05
4.47059e-07
2.09514e-05
4.40994e-07
2.07196e-05
4.29925e-07
2.04958e-05
4.15028e-07
2.02813e-05
3.97318e-07
2.00773e-05
3.77654e-07
1.98845e-05
3.56755e-07
1.97034e-05
3.35205e-07
1.95338e-05
3.13477e-07
1.93759e-05
2.91944e-07
1.92293e-05
2.70892e-07
1.90937e-05
2.50535e-07
1.89687e-05
2.31026e-07
1.88536e-05
2.1247e-07
1.87481e-05
1.94929e-07
1.86514e-05
1.78435e-07
1.85631e-05
1.62994e-07
1.84826e-05
1.48591e-07
1.84093e-05
1.35198e-07
1.83428e-05
1.22776e-07
1.82825e-05
1.11276e-07
1.82279e-05
1.00645e-07
1.81787e-05
9.08283e-08
1.81343e-05
8.17676e-08
1.80945e-05
7.34047e-08
1.80589e-05
6.56817e-08
1.80272e-05
5.8542e-08
1.79991e-05
5.193e-08
1.79743e-05
4.57921e-08
1.79525e-05
4.00764e-08
1.79337e-05
3.47327e-08
1.79177e-05
2.97126e-08
1.79042e-05
2.49694e-08
1.78931e-05
2.04577e-08
1.78844e-05
1.61334e-08
1.7878e-05
1.19534e-08
1.78738e-05
7.8755e-09
1.78718e-05
3.85823e-09
1.7872e-05
-1.39737e-10
1.78744e-05
-4.15696e-09
1.78789e-05
-8.23312e-09
1.78858e-05
-1.24116e-08
1.7895e-05
-1.67392e-08
1.79068e-05
-2.12651e-08
1.79211e-05
-2.60416e-08
1.79382e-05
-3.11246e-08
1.79583e-05
-3.65739e-08
1.79816e-05
-4.24546e-08
1.80084e-05
-4.88377e-08
1.8039e-05
-5.58013e-08
1.80737e-05
-6.34319e-08
1.81131e-05
-7.18258e-08
1.81576e-05
-8.10907e-08
1.82076e-05
-9.13478e-08
1.82639e-05
-1.02734e-07
1.83272e-05
-1.15405e-07
1.83981e-05
-1.29536e-07
1.84777e-05
-1.45331e-07
1.8567e-05
-1.63021e-07
1.86671e-05
-1.82873e-07
1.87795e-05
-2.05198e-07
1.89056e-05
-2.30354e-07
1.90472e-05
-2.5876e-07
1.92065e-05
-2.9091e-07
1.93856e-05
-3.27382e-07
1.95874e-05
-3.68863e-07
1.9815e-05
-4.16167e-07
2.00722e-05
-4.70271e-07
2.03632e-05
-5.32348e-07
2.06932e-05
-6.0382e-07
2.10682e-05
-6.86415e-07
2.14954e-05
-7.82257e-07
2.19835e-05
-8.93968e-07
2.25428e-05
-1.02482e-06
2.3186e-05
-1.1789e-06
2.39285e-05
-1.36144e-06
2.47896e-05
-1.57912e-06
2.57933e-05
-1.84062e-06
2.69703e-05
-2.15742e-06
2.83609e-05
-2.54504e-06
3.00192e-05
-3.02517e-06
3.20218e-05
-3.62979e-06
3.4484e-05
-4.40987e-06
3.75907e-05
-5.45645e-06
4.16515e-05
-6.95016e-06
4.72106e-05
-9.26277e-06
5.53229e-05
-1.31707e-05
6.80196e-05
-2.05572e-05
8.67727e-05
-3.66629e-05
9.72525e-05
-7.25486e-05
6.47526e-05
-0.000128367
1.59941e-05
-0.000164322
-3.45911e-05
-0.000168206
-6.9444e-05
-0.000134754
-5.80811e-05
-7.63582e-05
-3.85261e-05
-3.84165e-05
-2.53786e-05
-2.11131e-05
-1.71121e-05
-1.30771e-05
-1.16005e-05
-8.83355e-06
-7.71778e-06
-6.35224e-06
-4.87895e-06
-4.75533e-06
-2.76102e-06
-3.60909e-06
-1.18965e-06
-2.69583e-06
-1.90285e-06
4.30573e-07
-1.03251e-06
9.72898e-07
-1.36039e-06
1.63778e-06
-1.70199e-06
2.42997e-06
-2.04858e-06
3.35045e-06
-2.39321e-06
4.3972e-06
-2.72792e-06
5.56476e-06
-3.04435e-06
6.84383e-06
-3.33354e-06
8.22104e-06
-3.58589e-06
9.679e-06
-3.79162e-06
1.11964e-05
-3.94149e-06
1.27489e-05
-4.02774e-06
1.43097e-05
-4.04498e-06
1.5851e-05
-3.99092e-06
1.73456e-05
-3.86673e-06
1.8768e-05
-3.6771e-06
2.00957e-05
-3.42982e-06
2.13103e-05
-3.13514e-06
2.2398e-05
-2.80489e-06
2.33499e-05
-2.45159e-06
2.41621e-05
-2.08755e-06
2.48346e-05
-1.72418e-06
2.53718e-05
-1.37148e-06
2.57809e-05
-1.03767e-06
2.60716e-05
-7.29067e-07
2.62553e-05
-4.50088e-07
2.63443e-05
-2.03376e-07
2.63514e-05
1.002e-08
2.62892e-05
1.90442e-07
2.61698e-05
3.39306e-07
2.60045e-05
4.5869e-07
2.58036e-05
5.51147e-07
2.55762e-05
6.19518e-07
2.53305e-05
6.66768e-07
2.50733e-05
6.9585e-07
2.48104e-05
7.09607e-07
2.45468e-05
7.10693e-07
2.42863e-05
7.01532e-07
2.40319e-05
6.84288e-07
2.37861e-05
6.6086e-07
2.35505e-05
6.32881e-07
2.33264e-05
6.01735e-07
2.31146e-05
5.68575e-07
2.29155e-05
5.34345e-07
2.27292e-05
4.99803e-07
2.25555e-05
4.6555e-07
2.23944e-05
4.32045e-07
2.22453e-05
3.99632e-07
2.21078e-05
3.6856e-07
2.19812e-05
3.38996e-07
2.18651e-05
3.11043e-07
2.17588e-05
2.84753e-07
2.16617e-05
2.60134e-07
2.15731e-05
2.37166e-07
2.14925e-05
2.15804e-07
2.14193e-05
1.95986e-07
2.13529e-05
1.77635e-07
2.12929e-05
1.60668e-07
2.12387e-05
1.44996e-07
2.119e-05
1.30527e-07
2.11462e-05
1.17169e-07
2.11071e-05
1.04829e-07
2.10722e-05
9.3418e-08
2.10413e-05
8.28463e-08
2.1014e-05
7.30289e-08
2.09902e-05
6.38828e-08
2.09696e-05
5.5328e-08
2.09521e-05
4.72874e-08
2.09373e-05
3.96861e-08
2.09253e-05
3.24517e-08
2.0916e-05
2.55138e-08
2.09091e-05
1.88033e-08
2.09047e-05
1.22527e-08
2.09028e-05
5.79537e-09
2.09033e-05
-6.3424e-10
2.09062e-05
-7.09931e-09
2.09117e-05
-1.36644e-08
2.09197e-05
-2.03999e-08
2.09303e-05
-2.73807e-08
2.09437e-05
-3.46861e-08
2.09601e-05
-4.23999e-08
2.09796e-05
-5.06118e-08
2.10024e-05
-5.94182e-08
2.10289e-05
-6.89238e-08
2.10593e-05
-7.92429e-08
2.1094e-05
-9.05012e-08
2.11334e-05
-1.02838e-07
2.1178e-05
-1.16408e-07
2.12283e-05
-1.31385e-07
2.12849e-05
-1.47964e-07
2.13485e-05
-1.66364e-07
2.14199e-05
-1.86834e-07
2.15001e-05
-2.09659e-07
2.15899e-05
-2.35162e-07
2.16906e-05
-2.63715e-07
2.18035e-05
-2.95744e-07
2.193e-05
-3.31746e-07
2.20719e-05
-3.72292e-07
2.22312e-05
-4.18052e-07
2.24101e-05
-4.69808e-07
2.26112e-05
-5.28481e-07
2.28375e-05
-5.95158e-07
2.30925e-05
-6.7113e-07
2.33802e-05
-7.57941e-07
2.37053e-05
-8.57442e-07
2.40733e-05
-9.7187e-07
2.44908e-05
-1.10395e-06
2.49656e-05
-1.25701e-06
2.55068e-05
-1.43517e-06
2.61256e-05
-1.64357e-06
2.68353e-05
-1.88868e-06
2.76526e-05
-2.17871e-06
2.85978e-05
-2.52434e-06
2.96968e-05
-2.93956e-06
3.09826e-05
-3.44322e-06
3.24989e-05
-4.0614e-06
3.43053e-05
-4.83151e-06
3.64852e-05
-5.80977e-06
3.91606e-05
-7.08524e-06
4.25116e-05
-8.80739e-06
4.68005e-05
-1.12391e-05
5.239e-05
-1.48523e-05
5.9718e-05
-2.04987e-05
6.89191e-05
-2.97583e-05
7.77691e-05
-4.5513e-05
7.6647e-05
-7.14266e-05
5.347e-05
-0.00010519
1.71025e-05
-0.000127955
-2.04802e-05
-0.000130623
-4.52961e-05
-0.000109938
-4.65209e-05
-7.51334e-05
-3.71667e-05
-4.77707e-05
-2.74066e-05
-3.08731e-05
-1.96508e-05
-2.0833e-05
-1.37975e-05
-1.46868e-05
-9.39528e-06
-1.07545e-05
-6.05779e-06
-8.09282e-06
-3.50322e-06
-6.16367e-06
-1.53443e-06
-4.66462e-06
-3.43728e-06
4.83813e-07
-1.51632e-06
1.08683e-06
-1.96341e-06
1.8185e-06
-2.43366e-06
2.68583e-06
-2.91591e-06
3.69244e-06
-3.39981e-06
4.83857e-06
-3.87405e-06
6.12052e-06
-4.32629e-06
7.52993e-06
-4.74295e-06
9.05339e-06
-5.10935e-06
1.06723e-05
-5.41049e-06
1.23629e-05
-5.63216e-06
1.40976e-05
-5.76236e-06
1.58452e-05
-5.79268e-06
1.75737e-05
-5.71938e-06
1.9251e-05
-5.54403e-06
2.08474e-05
-5.27346e-06
2.23367e-05
-4.91919e-06
2.36979e-05
-4.49632e-06
2.49153e-05
-4.02228e-06
2.59791e-05
-3.51538e-06
2.68851e-05
-2.99354e-06
2.76342e-05
-2.47328e-06
2.82317e-05
-1.96897e-06
2.86863e-05
-1.49233e-06
2.90095e-05
-1.05227e-06
2.92144e-05
-6.54979e-07
2.93151e-05
-3.04053e-07
2.9326e-05
-8.72944e-10
2.92613e-05
2.55153e-07
2.91345e-05
4.66115e-07
2.89581e-05
6.35085e-07
2.87434e-05
7.6579e-07
2.85006e-05
8.62343e-07
2.82384e-05
9.29011e-07
2.79642e-05
9.70025e-07
2.76844e-05
9.89441e-07
2.7404e-05
9.91036e-07
2.71273e-05
9.78246e-07
2.68575e-05
9.54129e-07
2.6597e-05
9.21363e-07
2.63476e-05
8.82246e-07
2.61106e-05
8.3872e-07
2.58868e-05
7.92399e-07
2.56765e-05
7.44604e-07
2.54799e-05
6.96394e-07
2.52969e-05
6.48602e-07
2.51271e-05
6.0187e-07
2.497e-05
5.56674e-07
2.48252e-05
5.13358e-07
2.46921e-05
4.72153e-07
2.45699e-05
4.33199e-07
2.44581e-05
3.96567e-07
2.4356e-05
3.62268e-07
2.42629e-05
3.30271e-07
2.41782e-05
3.00513e-07
2.41012e-05
2.72904e-07
2.40315e-05
2.4734e-07
2.39685e-05
2.23702e-07
2.39116e-05
2.01866e-07
2.38605e-05
1.81704e-07
2.38145e-05
1.63087e-07
2.37735e-05
1.45886e-07
2.37369e-05
1.29976e-07
2.37045e-05
1.15232e-07
2.3676e-05
1.01535e-07
2.36511e-05
8.87705e-08
2.36296e-05
7.68264e-08
2.36113e-05
6.55949e-08
2.35961e-05
5.49719e-08
2.35836e-05
4.48564e-08
2.3574e-05
3.51499e-08
2.35671e-05
2.57562e-08
2.35627e-05
1.6581e-08
2.3561e-05
7.53119e-09
2.35618e-05
-1.48479e-09
2.35653e-05
-1.05564e-08
2.35714e-05
-1.9776e-08
2.35803e-05
-2.92426e-08
2.35919e-05
-3.9061e-08
2.36066e-05
-4.93419e-08
2.36244e-05
-6.02029e-08
2.36456e-05
-7.17693e-08
2.36703e-05
-8.41764e-08
2.3699e-05
-9.75707e-08
2.37318e-05
-1.12112e-07
2.37693e-05
-1.27978e-07
2.38118e-05
-1.45362e-07
2.38599e-05
-1.64482e-07
2.39141e-05
-1.8558e-07
2.39751e-05
-2.08928e-07
2.40435e-05
-2.34834e-07
2.41203e-05
-2.63645e-07
2.42064e-05
-2.95756e-07
2.43029e-05
-3.31618e-07
2.44109e-05
-3.71748e-07
2.45319e-05
-4.16737e-07
2.46674e-05
-4.67272e-07
2.48193e-05
-5.24144e-07
2.49895e-05
-5.88276e-07
2.51805e-05
-6.60746e-07
2.53948e-05
-7.42817e-07
2.56356e-05
-8.35979e-07
2.59065e-05
-9.41998e-07
2.62115e-05
-1.06298e-06
2.65555e-05
-1.20143e-06
2.6944e-05
-1.36039e-06
2.73836e-05
-1.54354e-06
2.7882e-05
-1.75537e-06
2.84482e-05
-2.00142e-06
2.90932e-05
-2.28858e-06
2.98301e-05
-2.62551e-06
3.06746e-05
-3.02324e-06
3.16463e-05
-3.49601e-06
3.27693e-05
-4.06259e-06
3.40742e-05
-4.74817e-06
3.56004e-05
-5.58751e-06
3.73988e-05
-6.62997e-06
3.95369e-05
-7.94787e-06
4.21025e-05
-9.65082e-06
4.52049e-05
-1.19098e-05
4.89621e-05
-1.49963e-05
5.34514e-05
-1.93416e-05
5.85662e-05
-2.56134e-05
6.36095e-05
-3.48017e-05
6.62953e-05
-4.81987e-05
6.15364e-05
-6.66676e-05
4.4009e-05
-8.76625e-05
1.79639e-05
-0.00010191
-8.93069e-06
-0.000103728
-2.76849e-05
-9.11839e-05
-3.28262e-05
-6.99921e-05
-2.99307e-05
-5.06663e-05
-2.44334e-05
-3.63704e-05
-1.88291e-05
-2.64372e-05
-1.39146e-05
-1.96013e-05
-9.83593e-06
-1.48332e-05
-6.52478e-06
-1.1404e-05
-3.85937e-06
-8.82908e-06
-1.71937e-06
-6.80462e-06
-5.15665e-06
5.13539e-07
-2.02986e-06
1.14986e-06
-2.59973e-06
1.92017e-06
-3.20397e-06
2.8342e-06
-3.82994e-06
3.89885e-06
-4.46446e-06
5.11759e-06
-5.09279e-06
6.48939e-06
-5.6981e-06
8.00768e-06
-6.26123e-06
9.65954e-06
-6.76121e-06
1.14253e-05
-7.17628e-06
1.32789e-05
-7.4857e-06
1.51883e-05
-7.67178e-06
1.71176e-05
-7.72199e-06
1.90288e-05
-7.63057e-06
2.08842e-05
-7.39943e-06
2.26488e-05
-7.03805e-06
2.42922e-05
-6.56259e-06
2.57901e-05
-5.9942e-06
2.71249e-05
-5.35713e-06
2.82862e-05
-4.67671e-06
2.92702e-05
-3.97753e-06
3.0079e-05
-3.28203e-06
3.07195e-05
-2.60949e-06
3.12027e-05
-1.97551e-06
3.15422e-05
-1.39175e-06
3.17533e-05
-8.66118e-07
3.18523e-05
-4.03073e-07
3.18555e-05
-4.1041e-09
3.17788e-05
3.3186e-07
3.16371e-05
6.07827e-07
3.14441e-05
8.28109e-07
3.1212e-05
9.97845e-07
3.09518e-05
1.12264e-06
3.06725e-05
1.20825e-06
3.03822e-05
1.26036e-06
3.00872e-05
1.28437e-06
2.9793e-05
1.28527e-06
2.95037e-05
1.2676e-06
2.92224e-05
1.23537e-06
2.89517e-05
1.19207e-06
2.86933e-05
1.1407e-06
2.84482e-05
1.08375e-06
2.82173e-05
1.02333e-06
2.80008e-05
9.61125e-07
2.77987e-05
8.98491e-07
2.76108e-05
8.36492e-07
2.74367e-05
7.75943e-07
2.72759e-05
7.17447e-07
2.71279e-05
6.61434e-07
2.69918e-05
6.0819e-07
2.68671e-05
5.57889e-07
2.67531e-05
5.10611e-07
2.6649e-05
4.66366e-07
2.65542e-05
4.25106e-07
2.64679e-05
3.86746e-07
2.63897e-05
3.51165e-07
2.63188e-05
3.18226e-07
2.62547e-05
2.87773e-07
2.61969e-05
2.59645e-07
2.6145e-05
2.33674e-07
2.60984e-05
2.09692e-07
2.60567e-05
1.87534e-07
2.60196e-05
1.67034e-07
2.59868e-05
1.48035e-07
2.5958e-05
1.30382e-07
2.59328e-05
1.13926e-07
2.59111e-05
9.85219e-08
2.58927e-05
8.40319e-08
2.58774e-05
7.03212e-08
2.5865e-05
5.72596e-08
2.58554e-05
4.47202e-08
2.58486e-05
3.2579e-08
2.58444e-05
2.0714e-08
2.5843e-05
9.00507e-09
2.58441e-05
-2.66598e-09
2.5848e-05
-1.44165e-08
2.58546e-05
-2.63676e-08
2.5864e-05
-3.86479e-08
2.58763e-05
-5.13929e-08
2.58917e-05
-6.47454e-08
2.59104e-05
-7.8857e-08
2.59325e-05
-9.38897e-08
2.59583e-05
-1.10018e-07
2.59882e-05
-1.27432e-07
2.60224e-05
-1.46337e-07
2.60614e-05
-1.66962e-07
2.61056e-05
-1.89559e-07
2.61555e-05
-2.14406e-07
2.62118e-05
-2.41817e-07
2.6275e-05
-2.72141e-07
2.63459e-05
-3.05774e-07
2.64254e-05
-3.43161e-07
2.65145e-05
-3.84809e-07
2.66142e-05
-4.31294e-07
2.67257e-05
-4.83275e-07
2.68505e-05
-5.41509e-07
2.69901e-05
-6.06865e-07
2.71463e-05
-6.80349e-07
2.73211e-05
-7.63129e-07
2.75169e-05
-8.56563e-07
2.77364e-05
-9.62242e-07
2.79824e-05
-1.08203e-06
2.82586e-05
-1.21814e-06
2.85688e-05
-1.37319e-06
2.89176e-05
-1.5503e-06
2.93105e-05
-1.75321e-06
2.97534e-05
-1.98645e-06
3.02535e-05
-2.25553e-06
3.08193e-05
-2.56719e-06
3.14605e-05
-2.9298e-06
3.21888e-05
-3.35379e-06
3.30179e-05
-3.85239e-06
3.39645e-05
-4.44257e-06
3.50484e-05
-5.14644e-06
3.62935e-05
-5.99336e-06
3.77291e-05
-7.02306e-06
3.93896e-05
-8.29044e-06
4.13145e-05
-9.87286e-06
4.3545e-05
-1.18812e-05
4.61114e-05
-1.44762e-05
4.90046e-05
-1.78896e-05
5.21115e-05
-2.24485e-05
5.50862e-05
-2.85881e-05
5.71092e-05
-3.68247e-05
5.65125e-05
-4.76021e-05
5.06042e-05
-6.07594e-05
3.71712e-05
-7.42295e-05
1.85255e-05
-8.3264e-05
-7.12489e-07
-8.44904e-05
-1.50041e-05
-7.68922e-05
-2.13279e-05
-6.36683e-05
-2.18902e-05
-5.0104e-05
-1.95497e-05
-3.87108e-05
-1.61274e-05
-2.98596e-05
-1.25491e-05
-2.31796e-05
-9.22544e-06
-1.81569e-05
-6.30399e-06
-1.43254e-05
-3.81089e-06
-1.13222e-05
-1.72223e-06
-8.89329e-06
-6.87888e-06
5.17197e-07
-2.54706e-06
1.15806e-06
-3.24059e-06
1.93694e-06
-3.98285e-06
2.86778e-06
-4.76078e-06
3.96207e-06
-5.55875e-06
5.22777e-06
-6.35849e-06
6.66771e-06
-7.13804e-06
8.27801e-06
-7.87153e-06
1.00468e-05
-8.53001e-06
1.19535e-05
-9.083e-06
1.39689e-05
-9.50105e-06
1.60559e-05
-9.75883e-06
1.81721e-05
-9.83814e-06
2.02719e-05
-9.73039e-06
2.23103e-05
-9.43784e-06
2.42457e-05
-8.97339e-06
2.60422e-05
-8.35913e-06
2.76719e-05
-7.62394e-06
2.91154e-05
-6.80063e-06
3.03618e-05
-5.92312e-06
3.14083e-05
-5.024e-06
3.22589e-05
-4.13262e-06
3.29233e-05
-3.27386e-06
3.34152e-05
-2.46747e-06
3.37514e-05
-1.72796e-06
3.39502e-05
-1.06484e-06
3.40302e-05
-4.83149e-07
3.40103e-05
1.58566e-08
3.3908e-05
4.34112e-07
3.37399e-05
7.75921e-07
3.35209e-05
1.04716e-06
3.3264e-05
1.2547e-06
3.29807e-05
1.40591e-06
3.26807e-05
1.50829e-06
3.23719e-05
1.56914e-06
3.20609e-05
1.59536e-06
3.17529e-05
1.59326e-06
3.1452e-05
1.56855e-06
3.11611e-05
1.52624e-06
3.08825e-05
1.47065e-06
3.06178e-05
1.40547e-06
3.03677e-05
1.33378e-06
3.01329e-05
1.25813e-06
2.99135e-05
1.18057e-06
2.97093e-05
1.10273e-06
2.95199e-05
1.02588e-06
2.93448e-05
9.51004e-07
2.91835e-05
8.78799e-07
2.90351e-05
8.09768e-07
2.88991e-05
7.4424e-07
2.87746e-05
6.82406e-07
2.86608e-05
6.24347e-07
2.85571e-05
5.70059e-07
2.84628e-05
5.19472e-07
2.8377e-05
4.72469e-07
2.82993e-05
4.28895e-07
2.8229e-05
3.88574e-07
2.81654e-05
3.5131e-07
2.81082e-05
3.16901e-07
2.80567e-05
2.85137e-07
2.80106e-05
2.55811e-07
2.79694e-05
2.28717e-07
2.79328e-05
2.03652e-07
2.79004e-05
1.80421e-07
2.7872e-05
1.58832e-07
2.78472e-05
1.38705e-07
2.78258e-05
1.1986e-07
2.78077e-05
1.02129e-07
2.77927e-05
8.53466e-08
2.77806e-05
6.93529e-08
2.77714e-05
5.39929e-08
2.77648e-05
3.91147e-08
2.7761e-05
2.4569e-08
2.77598e-05
1.02086e-08
2.77612e-05
-4.11182e-09
2.77653e-05
-1.85378e-08
2.77722e-05
-3.32198e-08
2.77818e-05
-4.83157e-08
2.77944e-05
-6.39913e-08
2.78101e-05
-8.04213e-08
2.78291e-05
-9.77909e-08
2.78515e-05
-1.16299e-07
2.78776e-05
-1.36157e-07
2.79078e-05
-1.57599e-07
2.79423e-05
-1.80877e-07
2.79816e-05
-2.06269e-07
2.80261e-05
-2.34081e-07
2.80764e-05
-2.64656e-07
2.81329e-05
-2.98373e-07
2.81965e-05
-3.35659e-07
2.82677e-05
-3.76992e-07
2.83474e-05
-4.22915e-07
2.84367e-05
-4.74038e-07
2.85364e-05
-5.31059e-07
2.86479e-05
-5.94772e-07
2.87725e-05
-6.66086e-07
2.89117e-05
-7.46043e-07
2.90672e-05
-8.35846e-07
2.92409e-05
-9.36887e-07
2.94352e-05
-1.05078e-06
2.96523e-05
-1.17941e-06
2.98953e-05
-1.32497e-06
3.01672e-05
-1.49006e-06
3.04717e-05
-1.67774e-06
3.0813e-05
-1.89163e-06
3.11959e-05
-2.13607e-06
3.16257e-05
-2.41627e-06
3.21087e-05
-2.73853e-06
3.2652e-05
-3.11049e-06
3.32638e-05
-3.54158e-06
3.39534e-05
-4.04345e-06
3.47318e-05
-4.63071e-06
3.56111e-05
-5.32188e-06
3.66053e-05
-6.1407e-06
3.773e-05
-7.11805e-06
3.90016e-05
-8.29464e-06
4.04359e-05
-9.72474e-06
4.20445e-05
-1.14815e-05
4.38268e-05
-1.36636e-05
4.57543e-05
-1.64037e-05
4.77407e-05
-1.9876e-05
4.959e-05
-2.42977e-05
5.09144e-05
-2.99126e-05
5.10221e-05
-3.69323e-05
4.88126e-05
-4.53926e-05
4.28882e-05
-5.48349e-05
3.24383e-05
-6.37796e-05
1.88313e-05
-6.9657e-05
4.86373e-06
-7.05228e-05
-6.1456e-06
-6.58829e-05
-1.24392e-05
-5.73747e-05
-1.46981e-05
-4.78451e-05
-1.43786e-05
-3.90303e-05
-1.26779e-05
-3.15603e-05
-1.03758e-05
-2.54816e-05
-7.92739e-06
-2.06053e-05
-5.57552e-06
-1.66773e-05
-3.43923e-06
-1.34585e-05
-1.57184e-06
-1.07607e-05
-8.45072e-06
4.93694e-07
-3.04075e-06
1.10845e-06
-3.85535e-06
1.86395e-06
-4.73836e-06
2.78028e-06
-5.6771e-06
3.87528e-06
-6.65375e-06
5.16303e-06
-7.64624e-06
6.65165e-06
-8.62666e-06
8.34111e-06
-9.56099e-06
1.02212e-05
-1.04101e-05
1.22705e-05
-1.11322e-05
1.44556e-05
-1.16862e-05
1.67332e-05
-1.20364e-05
1.90518e-05
-1.21567e-05
2.13562e-05
-1.20348e-05
2.35916e-05
-1.16733e-05
2.5708e-05
-1.10897e-05
2.76629e-05
-1.0314e-05
2.9424e-05
-9.38506e-06
3.09699e-05
-8.34659e-06
3.22901e-05
-7.24323e-06
3.33833e-05
-6.11723e-06
3.42567e-05
-5.00605e-06
3.49237e-05
-3.94086e-06
3.54022e-05
-2.94591e-06
3.57127e-05
-2.03847e-06
3.58772e-05
-1.22937e-06
3.59179e-05
-5.23801e-07
3.5856e-05
7.77478e-08
3.57115e-05
5.78594e-07
3.55025e-05
9.84863e-07
3.52452e-05
1.30445e-06
3.49536e-05
1.54637e-06
3.46394e-05
1.72012e-06
3.43125e-05
1.83519e-06
3.39809e-05
1.90075e-06
3.36509e-05
1.92532e-06
3.33275e-05
1.91668e-06
3.30143e-05
1.88173e-06
3.2714e-05
1.82651e-06
3.24285e-05
1.7562e-06
3.21588e-05
1.67515e-06
3.19056e-05
1.58701e-06
3.1669e-05
1.49472e-06
3.14489e-05
1.40067e-06
3.12449e-05
1.30674e-06
3.10564e-05
1.21437e-06
3.08827e-05
1.12465e-06
3.07232e-05
1.03837e-06
3.05769e-05
9.5607e-07
3.0443e-05
8.78105e-07
3.03208e-05
8.0466e-07
3.02093e-05
7.358e-07
3.01079e-05
6.71494e-07
3.00157e-05
6.11639e-07
2.99321e-05
5.56077e-07
2.98564e-05
5.04612e-07
2.97879e-05
4.57021e-07
2.97262e-05
4.13065e-07
2.96706e-05
3.72496e-07
2.96207e-05
3.35061e-07
2.9576e-05
3.00511e-07
2.95361e-05
2.68597e-07
2.95006e-05
2.39079e-07
2.94693e-05
2.11723e-07
2.94419e-05
1.86303e-07
2.9418e-05
1.62601e-07
2.93974e-05
1.40409e-07
2.938e-05
1.19525e-07
2.93656e-05
9.97541e-08
2.93541e-05
8.09081e-08
2.93453e-05
6.2804e-08
2.93391e-05
4.52627e-08
2.93356e-05
2.81083e-08
2.93346e-05
1.11668e-08
2.93362e-05
-5.73395e-09
2.93405e-05
-2.27672e-08
2.93474e-05
-4.0112e-08
2.9357e-05
-5.79548e-08
2.93695e-05
-7.64907e-08
2.9385e-05
-9.59251e-08
2.94037e-05
-1.16476e-07
2.94258e-05
-1.38376e-07
2.94515e-05
-1.61876e-07
2.94811e-05
-1.87248e-07
2.9515e-05
-2.14789e-07
2.95536e-05
-2.44824e-07
2.95972e-05
-2.77715e-07
2.96464e-05
-3.13859e-07
2.97018e-05
-3.53702e-07
2.97638e-05
-3.97739e-07
2.98334e-05
-4.46531e-07
2.99112e-05
-5.00704e-07
2.99981e-05
-5.60971e-07
3.00952e-05
-6.28136e-07
3.02035e-05
-7.03116e-07
3.03244e-05
-7.86957e-07
3.04592e-05
-8.80856e-07
3.06096e-05
-9.8619e-07
3.07772e-05
-1.10454e-06
3.09642e-05
-1.23775e-06
3.11727e-05
-1.38793e-06
3.14053e-05
-1.55758e-06
3.16648e-05
-1.74958e-06
3.19545e-05
-1.96736e-06
3.22777e-05
-2.21491e-06
3.26387e-05
-2.49703e-06
3.30418e-05
-2.81939e-06
3.34921e-05
-3.1888e-06
3.39951e-05
-3.61351e-06
3.4557e-05
-4.10351e-06
3.51846e-05
-4.67105e-06
3.58852e-05
-5.33127e-06
3.66664e-05
-6.10302e-06
3.75357e-05
-7.01001e-06
3.84999e-05
-8.08229e-06
3.95635e-05
-9.35821e-06
4.07257e-05
-1.0887e-05
4.19758e-05
-1.27316e-05
4.32843e-05
-1.49721e-05
4.45884e-05
-1.77077e-05
4.57687e-05
-2.10563e-05
4.66159e-05
-2.51449e-05
4.67879e-05
-3.00846e-05
4.57711e-05
-3.59155e-05
4.28824e-05
-4.25039e-05
3.74221e-05
-4.93746e-05
2.91596e-05
-5.55171e-05
1.89773e-05
-5.94747e-05
8.5879e-06
-6.01334e-05
-5.83584e-08
-5.72366e-05
-5.80736e-06
-5.16257e-05
-8.7662e-06
-4.48863e-05
-9.63949e-06
-3.8157e-05
-9.16255e-06
-3.20373e-05
-7.91248e-06
-2.67317e-05
-6.28987e-06
-2.22279e-05
-4.5533e-06
-1.84139e-05
-2.86337e-06
-1.51484e-05
-1.32107e-06
-1.2303e-05
-9.77179e-06
4.4188e-07
-3.48263e-06
9.98021e-07
-4.41149e-06
1.69625e-06
-5.43658e-06
2.56512e-06
-6.54598e-06
3.63101e-06
-7.71964e-06
4.9161e-06
-8.93134e-06
6.43563e-06
-1.01462e-05
8.19483e-06
-1.13202e-05
1.01861e-05
-1.24014e-05
1.23868e-05
-1.33329e-05
1.47588e-05
-1.40582e-05
1.72497e-05
-1.45273e-05
1.97967e-05
-1.47037e-05
2.23317e-05
-1.45697e-05
2.47871e-05
-1.41287e-05
2.71019e-05
-1.34046e-05
2.92257e-05
-1.24378e-05
3.11212e-05
-1.12806e-05
3.27652e-05
-9.9906e-06
3.41479e-05
-8.62596e-06
3.52713e-05
-7.24064e-06
3.61469e-05
-5.88159e-06
3.67931e-05
-4.58706e-06
3.72331e-05
-3.38595e-06
3.74928e-05
-2.29811e-06
3.75986e-05
-1.33523e-06
3.75768e-05
-5.01963e-07
3.74518e-05
2.02726e-07
3.72462e-05
7.84232e-07
3.69799e-05
1.25114e-06
3.66703e-05
1.61401e-06
3.63322e-05
1.8845e-06
3.59777e-05
2.07465e-06
3.56166e-05
2.19632e-06
3.52566e-05
2.26074e-06
3.49036e-05
2.27826e-06
3.45621e-05
2.25818e-06
3.42352e-05
2.20868e-06
3.39249e-05
2.13684e-06
3.36324e-05
2.04865e-06
3.33584e-05
1.94912e-06
3.31031e-05
1.84237e-06
3.28661e-05
1.73173e-06
3.26469e-05
1.61985e-06
3.24448e-05
1.5088e-06
3.22591e-05
1.40014e-06
3.20887e-05
1.29504e-06
3.19327e-05
1.19433e-06
3.17902e-05
1.09856e-06
3.16603e-05
1.00806e-06
3.15419e-05
9.23e-07
3.14343e-05
8.43405e-07
3.13366e-05
7.69199e-07
3.1248e-05
7.0023e-07
3.11678e-05
6.3629e-07
3.10953e-05
5.77129e-07
3.10298e-05
5.22474e-07
3.09709e-05
4.72036e-07
3.09179e-05
4.25517e-07
3.08703e-05
3.82618e-07
3.08278e-05
3.43043e-07
3.07899e-05
3.06504e-07
3.07562e-05
2.72718e-07
3.07265e-05
2.41415e-07
3.07005e-05
2.12331e-07
3.06779e-05
1.85217e-07
3.06585e-05
1.5983e-07
3.0642e-05
1.35939e-07
3.06285e-05
1.13319e-07
3.06176e-05
9.17555e-08
3.06094e-05
7.10373e-08
3.06037e-05
5.09597e-08
3.06005e-05
3.13208e-08
3.05997e-05
1.19213e-08
3.06014e-05
-7.43703e-09
3.06056e-05
-2.69543e-08
3.06124e-05
-4.68366e-08
3.06217e-05
-6.72975e-08
3.06338e-05
-8.85597e-08
3.06487e-05
-1.10858e-07
3.06667e-05
-1.34439e-07
3.06879e-05
-1.59571e-07
3.07125e-05
-1.86537e-07
3.07409e-05
-2.15648e-07
3.07734e-05
-2.47242e-07
3.08102e-05
-2.81688e-07
3.08519e-05
-3.19396e-07
3.08989e-05
-3.60817e-07
3.09516e-05
-4.06454e-07
3.10108e-05
-4.56868e-07
3.10769e-05
-5.1269e-07
3.11508e-05
-5.74626e-07
3.12333e-05
-6.43472e-07
3.13253e-05
-7.20132e-07
3.14278e-05
-8.05628e-07
3.1542e-05
-9.01123e-07
3.16691e-05
-1.00795e-06
3.18105e-05
-1.12761e-06
3.19679e-05
-1.26187e-06
3.21428e-05
-1.41273e-06
3.23374e-05
-1.58251e-06
3.25537e-05
-1.7739e-06
3.27942e-05
-1.99003e-06
3.30614e-05
-2.23454e-06
3.33582e-05
-2.51172e-06
3.36877e-05
-2.8266e-06
3.40535e-05
-3.18515e-06
3.44591e-05
-3.59443e-06
3.49085e-05
-4.06289e-06
3.54057e-05
-4.60068e-06
3.59547e-05
-5.22005e-06
3.65593e-05
-5.93586e-06
3.72225e-05
-6.7663e-06
3.79462e-05
-7.73367e-06
3.87293e-05
-8.86543e-06
3.95666e-05
-1.01954e-05
4.04449e-05
-1.17653e-05
4.13387e-05
-1.36254e-05
4.22024e-05
-1.58357e-05
4.2959e-05
-1.84644e-05
4.34853e-05
-2.15826e-05
4.3593e-05
-2.52526e-05
4.3012e-05
-2.95037e-05
4.13871e-05
-3.42905e-05
3.83126e-05
-3.94294e-05
3.34556e-05
-4.45176e-05
2.68133e-05
-4.88748e-05
1.8983e-05
-5.16444e-05
1.10285e-05
-5.2179e-05
4.12404e-06
-5.03322e-05
-9.35773e-07
-4.65659e-05
-4.07551e-06
-4.17465e-05
-5.60157e-06
-3.66309e-05
-5.94189e-06
-3.16969e-05
-5.49439e-06
-2.71792e-05
-4.57613e-06
-2.31461e-05
-3.4209e-06
-1.95691e-05
-2.1957e-06
-1.63736e-05
-1.0224e-06
-1.34763e-05
-1.07942e-05
3.60043e-07
-3.84268e-06
8.22974e-07
-4.87442e-06
1.42782e-06
-6.04143e-06
2.21437e-06
-7.33252e-06
3.22e-06
-8.72527e-06
4.47743e-06
-1.01888e-05
6.01122e-06
-1.168e-05
7.83371e-06
-1.31427e-05
9.94094e-06
-1.45086e-05
1.23093e-05
-1.57013e-05
1.48943e-05
-1.66432e-05
1.76319e-05
-1.7265e-05
2.04441e-05
-1.75159e-05
2.32454e-05
-1.73711e-05
2.59522e-05
-1.68355e-05
2.84896e-05
-1.59419e-05
3.07973e-05
-1.47455e-05
3.28325e-05
-1.33158e-05
3.45707e-05
-1.17288e-05
3.60041e-05
-1.00594e-05
3.71393e-05
-8.37584e-06
3.79939e-05
-6.73615e-06
3.85932e-05
-5.18633e-06
3.89672e-05
-3.76001e-06
3.91483e-05
-2.47918e-06
3.91687e-05
-1.3556e-06
3.90592e-05
-3.92518e-07
3.88483e-05
4.13682e-07
3.85612e-05
1.07134e-06
3.822e-05
1.59236e-06
3.78432e-05
1.99072e-06
3.74464e-05
2.28136e-06
3.70416e-05
2.4794e-06
3.66385e-05
2.59941e-06
3.62443e-05
2.65497e-06
3.58642e-05
2.65841e-06
3.55017e-05
2.62066e-06
3.51591e-05
2.5512e-06
3.48379e-05
2.45812e-06
3.45383e-05
2.34819e-06
3.42604e-05
2.227e-06
3.40037e-05
2.09909e-06
3.37674e-05
1.96809e-06
3.35504e-05
1.83683e-06
3.33517e-05
1.7075e-06
3.31701e-05
1.58172e-06
3.30045e-05
1.46067e-06
3.28536e-05
1.34518e-06
3.27164e-05
1.23575e-06
3.25918e-05
1.13268e-06
3.24787e-05
1.03606e-06
3.23763e-05
9.4587e-07
3.22835e-05
8.61959e-07
3.21996e-05
7.8411e-07
3.21239e-05
7.12052e-07
3.20555e-05
6.45473e-07
3.1994e-05
5.84039e-07
3.19386e-05
5.27404e-07
3.18889e-05
4.75217e-07
3.18444e-05
4.2713e-07
3.18046e-05
3.82799e-07
3.17692e-05
3.41891e-07
3.17379e-05
3.04084e-07
3.17102e-05
2.69068e-07
3.1686e-05
2.36545e-07
3.1665e-05
2.06231e-07
3.1647e-05
1.77852e-07
3.16318e-05
1.51148e-07
3.16192e-05
1.25867e-07
3.16092e-05
1.01765e-07
3.16016e-05
7.86075e-08
3.15964e-05
5.61641e-08
3.15935e-05
3.42089e-08
3.15929e-05
1.25184e-08
3.15946e-05
-9.13014e-09
3.15986e-05
-3.0962e-08
3.1605e-05
-5.32084e-08
3.16138e-05
-7.61078e-08
3.16252e-05
-9.99085e-08
3.16392e-05
-1.24872e-07
3.1656e-05