/*--------------------------------*- C++ -*----------------------------------*\
  =========                 |
  \\      /  F ield         | OpenFOAM: The Open Source CFD Toolbox
   \\    /   O peration     | Website:  https://openfoam.org
    \\  /    A nd           | Version:  12
     \\/     M anipulation  |
\*---------------------------------------------------------------------------*/
FoamFile
{
    format      ascii;
    class       volVectorField;
    location    "10";
    object      U;
}
// * * * * * * * * * * * * * * * * * * * * * * * * * * * * * * * * * * * * * //

dimensions      [0 1 -1 0 0 0 0];

internalField   nonuniform List<vector> 
4480
(
(7.15648e-05 0 -7.24349e-05)
(0.00015568 0 -0.000104227)
(0.000324094 0 -0.00013175)
(0.000532403 0 -0.00016078)
(0.00077923 0 -0.000189489)
(0.00106518 0 -0.00021675)
(0.00138852 0 -0.000242019)
(0.00174622 0 -0.000264759)
(0.00213436 0 -0.000284329)
(0.00254806 0 -0.000300045)
(0.00298145 0 -0.000311262)
(0.00342775 0 -0.000317438)
(0.00387947 0 -0.000318201)
(0.0043287 0 -0.000313411)
(0.00476749 0 -0.000303178)
(0.00518823 0 -0.000287878)
(0.00558402 0 -0.000268117)
(0.00594897 0 -0.000244687)
(0.00627844 0 -0.000218505)
(0.00656916 0 -0.000190541)
(0.00681927 0 -0.000161753)
(0.00702824 0 -0.000133034)
(0.00719677 0 -0.000105168)
(0.00732659 0 -7.88043e-05)
(0.00742023 0 -5.44431e-05)
(0.00748087 0 -3.24368e-05)
(0.00751203 0 -1.29953e-05)
(0.00751747 0 3.80459e-06)
(0.00750104 0 1.79769e-05)
(0.00746628 0 2.96525e-05)
(0.00741669 0 3.90009e-05)
(0.00735545 0 4.62179e-05)
(0.00728544 0 5.15254e-05)
(0.00720921 0 5.51571e-05)
(0.00712896 0 5.73472e-05)
(0.00704658 0 5.83211e-05)
(0.00696362 0 5.829e-05)
(0.00688137 0 5.74468e-05)
(0.00680085 0 5.59637e-05)
(0.00672284 0 5.39922e-05)
(0.00664794 0 5.16626e-05)
(0.00657656 0 4.90853e-05)
(0.00650898 0 4.63524e-05)
(0.00644536 0 4.35391e-05)
(0.00638576 0 4.07062e-05)
(0.00633018 0 3.79012e-05)
(0.00627854 0 3.51609e-05)
(0.00623072 0 3.25127e-05)
(0.00618658 0 2.99761e-05)
(0.00614595 0 2.75644e-05)
(0.00610863 0 2.52856e-05)
(0.00607445 0 2.31434e-05)
(0.0060432 0 2.11386e-05)
(0.0060147 0 1.92691e-05)
(0.00598874 0 1.75311e-05)
(0.00596514 0 1.59194e-05)
(0.00594374 0 1.44277e-05)
(0.00592437 0 1.30491e-05)
(0.00590687 0 1.17763e-05)
(0.0058911 0 1.06018e-05)
(0.00587691 0 9.51802e-06)
(0.0058642 0 8.51741e-06)
(0.00585285 0 7.59258e-06)
(0.00584275 0 6.73636e-06)
(0.00583382 0 5.94175e-06)
(0.00582597 0 5.20203e-06)
(0.00581912 0 4.51068e-06)
(0.00581322 0 3.86143e-06)
(0.00580821 0 3.2482e-06)
(0.00580405 0 2.66512e-06)
(0.00580068 0 2.10646e-06)
(0.00579809 0 1.56664e-06)
(0.00579625 0 1.0402e-06)
(0.00579515 0 5.21865e-07)
(0.00579477 0 6.4596e-09)
(0.00579512 0 -5.11523e-07)
(0.0057962 0 -1.03687e-06)
(0.00579804 0 -1.57498e-06)
(0.00580064 0 -2.1319e-06)
(0.00580404 0 -2.71407e-06)
(0.00580828 0 -3.32824e-06)
(0.00581342 0 -3.98164e-06)
(0.0058195 0 -4.68198e-06)
(0.00582661 0 -5.43765e-06)
(0.00583483 0 -6.25781e-06)
(0.00584425 0 -7.15253e-06)
(0.00585498 0 -8.13295e-06)
(0.00586717 0 -9.21149e-06)
(0.00588094 0 -1.04021e-05)
(0.00589648 0 -1.17203e-05)
(0.00591397 0 -1.31838e-05)
(0.00593363 0 -1.48127e-05)
(0.00595571 0 -1.66298e-05)
(0.00598049 0 -1.86613e-05)
(0.0060083 0 -2.09372e-05)
(0.00603949 0 -2.3492e-05)
(0.00607448 0 -2.6366e-05)
(0.00611376 0 -2.96057e-05)
(0.00615788 0 -3.32657e-05)
(0.00620747 0 -3.74099e-05)
(0.00626325 0 -4.21137e-05)
(0.00632607 0 -4.74664e-05)
(0.00639691 0 -5.35745e-05)
(0.00647692 0 -6.05653e-05)
(0.00656742 0 -6.85922e-05)
(0.00666999 0 -7.78409e-05)
(0.00678649 0 -8.85376e-05)
(0.00691912 0 -0.00010096)
(0.00707053 0 -0.000115449)
(0.00724386 0 -0.00013243)
(0.00744297 0 -0.000152432)
(0.00767249 0 -0.000176118)
(0.00793814 0 -0.00020432)
(0.00824697 0 -0.000238077)
(0.00860771 0 -0.000278667)
(0.00903122 0 -0.000327638)
(0.00953099 0 -0.000386769)
(0.0101237 0 -0.000457978)
(0.0108305 0 -0.000543535)
(0.0116804 0 -0.000648723)
(0.0127091 0 -0.000791589)
(0.0139308 0 -0.00102214)
(0.0153684 0 -0.00147611)
(0.0178218 0 -0.00280779)
(0.0252972 0 -0.00857808)
(0.0391756 0 -0.0314827)
(0.0437078 0 -0.080077)
(0.0208882 0 -0.101043)
(-0.00827785 0 -0.10406)
(-0.0339003 0 -0.084806)
(-0.0299229 0 -0.0328936)
(-0.0150703 0 -0.00919056)
(-0.00720859 0 -0.00293829)
(-0.0048363 0 -0.00142431)
(-0.00357008 0 -0.000907623)
(-0.00252136 0 -0.000659934)
(-0.00166353 0 -0.000513067)
(-0.000983466 0 -0.000402917)
(-0.000458446 0 -0.000308221)
(-0.000207169 0 -0.00020245)
(0.000101225 0 -0.000155809)
(0.000214153 0 -0.000218168)
(0.000425613 0 -0.000278993)
(0.000680779 0 -0.000339612)
(0.00098047 0 -0.000399168)
(0.00132599 0 -0.000456273)
(0.0017157 0 -0.000509663)
(0.0021463 0 -0.000558018)
(0.00261338 0 -0.000599874)
(0.00311124 0 -0.000633711)
(0.00363296 0 -0.000658087)
(0.00417046 0 -0.000671792)
(0.00471478 0 -0.00067399)
(0.00525648 0 -0.000664342)
(0.00578603 0 -0.000643066)
(0.00629429 0 -0.000610943)
(0.00677298 0 -0.000569266)
(0.00721503 0 -0.000519726)
(0.00761486 0 -0.000464282)
(0.00796853 0 -0.000405008)
(0.00827377 0 -0.000343955)
(0.0085299 0 -0.000283028)
(0.0087377 0 -0.000223901)
(0.00889917 0 -0.000167955)
(0.0090173 0 -0.000116256)
(0.00909579 0 -6.95519e-05)
(0.00913882 0 -2.82924e-05)
(0.00915079 0 7.35273e-06)
(0.00913629 0 3.74527e-05)
(0.00909959 0 6.22528e-05)
(0.00904482 0 8.21007e-05)
(0.00897579 0 9.74215e-05)
(0.00889595 0 0.000108691)
(0.00880836 0 0.000116406)
(0.00871565 0 0.000121065)
(0.0086201 0 0.000123146)
(0.00852359 0 0.000123098)
(0.00842767 0 0.000121328)
(0.00833357 0 0.000118203)
(0.00824226 0 0.000114043)
(0.00815445 0 0.000109125)
(0.00807068 0 0.000103682)
(0.00799128 0 9.79088e-05)
(0.00791646 0 9.19657e-05)
(0.00784632 0 8.59807e-05)
(0.00778084 0 8.00547e-05)
(0.00771997 0 7.42653e-05)
(0.00766358 0 6.86704e-05)
(0.00761149 0 6.33114e-05)
(0.00756352 0 5.82164e-05)
(0.00751945 0 5.3402e-05)
(0.00747905 0 4.88766e-05)
(0.00744212 0 4.46413e-05)
(0.00740841 0 4.0692e-05)
(0.0073777 0 3.70207e-05)
(0.00734979 0 3.36161e-05)
(0.00732447 0 3.04651e-05)
(0.00730154 0 2.75531e-05)
(0.00728082 0 2.48647e-05)
(0.00726214 0 2.23839e-05)
(0.00724535 0 2.00947e-05)
(0.00723031 0 1.79812e-05)
(0.00721687 0 1.60278e-05)
(0.00720492 0 1.42193e-05)
(0.00719435 0 1.25409e-05)
(0.00718507 0 1.09785e-05)
(0.00717698 0 9.51825e-06)
(0.00717002 0 8.14692e-06)
(0.00716412 0 6.8517e-06)
(0.00715922 0 5.62017e-06)
(0.00715528 0 4.44025e-06)
(0.00715227 0 3.30016e-06)
(0.00715015 0 2.18838e-06)
(0.00714891 0 1.09361e-06)
(0.00714854 0 4.61632e-09)
(0.00714905 0 -1.08938e-06)
(0.00715044 0 -2.19882e-06)
(0.00715272 0 -3.33548e-06)
(0.00715593 0 -4.5121e-06)
(0.00716011 0 -5.74216e-06)
(0.0071653 0 -7.03992e-06)
(0.00717157 0 -8.42057e-06)
(0.00717898 0 -9.90043e-06)
(0.00718763 0 -1.14972e-05)
(0.00719762 0 -1.32302e-05)
(0.00720907 0 -1.51206e-05)
(0.00722211 0 -1.71921e-05)
(0.00723689 0 -1.94707e-05)
(0.00725361 0 -2.19859e-05)
(0.00727245 0 -2.47706e-05)
(0.00729366 0 -2.7862e-05)
(0.00731749 0 -3.13025e-05)
(0.00734425 0 -3.51402e-05)
(0.00737426 0 -3.94301e-05)
(0.00740793 0 -4.42356e-05)
(0.00744569 0 -4.96295e-05)
(0.00748805 0 -5.56964e-05)
(0.00753558 0 -6.25343e-05)
(0.00758894 0 -7.02579e-05)
(0.0076489 0 -7.90018e-05)
(0.00771632 0 -8.89245e-05)
(0.00779221 0 -0.000100214)
(0.00787776 0 -0.000113093)
(0.00797432 0 -0.00012783)
(0.0080835 0 -0.000144747)
(0.00820716 0 -0.000164234)
(0.00834752 0 -0.000186766)
(0.0085072 0 -0.000212926)
(0.00868934 0 -0.000243435)
(0.0088977 0 -0.00027919)
(0.00913684 0 -0.000321315)
(0.0094123 0 -0.000371232)
(0.00973094 0 -0.000430755)
(0.0101013 0 -0.000502211)
(0.010534 0 -0.000588618)
(0.0110431 0 -0.000693941)
(0.0116468 0 -0.000823494)
(0.0123702 0 -0.000984683)
(0.0132499 0 -0.00118878)
(0.0143435 0 -0.00145617)
(0.0157444 0 -0.00183074)
(0.0176005 0 -0.0024101)
(0.0201914 0 -0.00340677)
(0.0242508 0 -0.00540711)
(0.0311447 0 -0.0105741)
(0.0385996 0 -0.0255725)
(0.035394 0 -0.0575589)
(0.0179448 0 -0.0754468)
(-0.00497784 0 -0.0774753)
(-0.0240999 0 -0.0609874)
(-0.0275781 0 -0.0271345)
(-0.0195674 0 -0.0111371)
(-0.0123211 0 -0.00551254)
(-0.00814869 0 -0.00330716)
(-0.00555377 0 -0.00222326)
(-0.00374993 0 -0.00161037)
(-0.00244023 0 -0.00121895)
(-0.00146173 0 -0.000931547)
(-0.000716642 0 -0.000693286)
(-0.00033169 0 -0.000472242)
(0.000121007 0 -0.000318303)
(0.000259015 0 -0.000426177)
(0.000507263 0 -0.000537081)
(0.000801217 0 -0.000648813)
(0.00114374 0 -0.000759335)
(0.00153737 0 -0.000866135)
(0.00198097 0 -0.000966637)
(0.00247143 0 -0.00105811)
(0.0030042 0 -0.00113763)
(0.00357314 0 -0.0012022)
(0.00417046 0 -0.00124899)
(0.00478696 0 -0.00127564)
(0.00541228 0 -0.00128052)
(0.0060354 0 -0.00126293)
(0.00664519 0 -0.00122326)
(0.00723093 0 -0.00116299)
(0.00778294 0 -0.00108456)
(0.00829298 0 -0.000991182)
(0.00875456 0 -0.000886557)
(0.00916314 0 -0.000774618)
(0.00951614 0 -0.000659247)
(0.00981286 0 -0.000544049)
(0.0100543 0 -0.000432187)
(0.0102427 0 -0.000326274)
(0.0103816 0 -0.000228323)
(0.0104753 0 -0.00013975)
(0.0105286 0 -6.14092e-05)
(0.0105466 0 6.36003e-06)
(0.0105344 0 6.36729e-05)
(0.0104969 0 0.000110964)
(0.0104389 0 0.000148888)
(0.0103647 0 0.000178249)
(0.0102782 0 0.000199945)
(0.0101828 0 0.000214915)
(0.0100816 0 0.000224097)
(0.00997709 0 0.000228392)
(0.00987137 0 0.000228646)
(0.00976619 0 0.00022563)
(0.00966294 0 0.000220035)
(0.0095627 0 0.000212466)
(0.00946627 0 0.000203444)
(0.00937425 0 0.000193412)
(0.00928701 0 0.000182738)
(0.00920479 0 0.000171724)
(0.00912769 0 0.000160614)
(0.00905572 0 0.000149598)
(0.0089888 0 0.000138825)
(0.00892679 0 0.000128404)
(0.00886952 0 0.000118416)
(0.00881676 0 0.000108913)
(0.00876829 0 9.99281e-05)
(0.00872386 0 9.14784e-05)
(0.00868323 0 8.35668e-05)
(0.00864615 0 7.61865e-05)
(0.00861237 0 6.93227e-05)
(0.00858166 0 6.29553e-05)
(0.0085538 0 5.70601e-05)
(0.00852857 0 5.161e-05)
(0.00850578 0 4.65766e-05)
(0.00848523 0 4.19302e-05)
(0.00846677 0 3.76411e-05)
(0.00845022 0 3.36798e-05)
(0.00843545 0 3.00171e-05)
(0.00842232 0 2.66246e-05)
(0.00841071 0 2.34749e-05)
(0.00840053 0 2.05413e-05)
(0.00839166 0 1.77981e-05)
(0.00838405 0 1.52206e-05)
(0.0083776 0 1.27848e-05)
(0.00837227 0 1.04673e-05)
(0.00836801 0 8.24561e-06)
(0.00836477 0 6.09753e-06)
(0.00836253 0 4.00143e-06)
(0.00836127 0 1.93599e-06)
(0.00836098 0 -1.19881e-07)
(0.00836166 0 -2.1862e-06)
(0.00836333 0 -4.28344e-06)
(0.00836601 0 -6.43404e-06)
(0.00836972 0 -8.66196e-06)
(0.00837452 0 -1.09926e-05)
(0.00838046 0 -1.34527e-05)
(0.00838761 0 -1.60711e-05)
(0.00839605 0 -1.88785e-05)
(0.00840588 0 -2.19085e-05)
(0.00841722 0 -2.51976e-05)
(0.00843021 0 -2.87859e-05)
(0.00844499 0 -3.2718e-05)
(0.00846173 0 -3.70434e-05)
(0.00848065 0 -4.18176e-05)
(0.00850197 0 -4.7103e-05)
(0.00852595 0 -5.297e-05)
(0.00855288 0 -5.94983e-05)
(0.00858309 0 -6.67789e-05)
(0.00861698 0 -7.49158e-05)
(0.00865496 0 -8.40281e-05)
(0.00869753 0 -9.42533e-05)
(0.00874526 0 -0.00010575)
(0.00879878 0 -0.000118704)
(0.00885882 0 -0.000133329)
(0.00892622 0 -0.000149878)
(0.00900194 0 -0.000168649)
(0.0090871 0 -0.000189993)
(0.00918299 0 -0.000214329)
(0.00929109 0 -0.000242155)
(0.00941314 0 -0.000274074)
(0.00955118 0 -0.000310812)
(0.0097076 0 -0.000353255)
(0.00988523 0 -0.000402491)
(0.0100874 0 -0.00045986)
(0.0103182 0 -0.000527039)
(0.0105825 0 -0.000606134)
(0.0108861 0 -0.000699828)
(0.0112364 0 -0.000811583)
(0.0116424 0 -0.000945932)
(0.0121158 0 -0.00110894)
(0.0126714 0 -0.00130896)
(0.0133294 0 -0.00155794)
(0.0141173 0 -0.00187391)
(0.015075 0 -0.00228594)
(0.016261 0 -0.00284481)
(0.0177626 0 -0.00364568)
(0.019704 0 -0.0048719)
(0.022258 0 -0.0068746)
(0.0256391 0 -0.0103542)
(0.0297385 0 -0.0168088)
(0.0323103 0 -0.0288652)
(0.0278666 0 -0.04637)
(0.0151994 0 -0.0575772)
(-0.00137442 0 -0.05885)
(-0.0152048 0 -0.0485551)
(-0.0199603 0 -0.0303399)
(-0.0171983 0 -0.0176061)
(-0.0128275 0 -0.0106851)
(-0.00923456 0 -0.00690928)
(-0.00654131 0 -0.00473185)
(-0.00452648 0 -0.00340555)
(-0.00300676 0 -0.0025386)
(-0.00183951 0 -0.00191996)
(-0.000924139 0 -0.00143816)
(-0.000425315 0 -0.00103687)
(0.00013619 0 -0.000505719)
(0.000290594 0 -0.000660251)
(0.00056519 0 -0.000822082)
(0.000887589 0 -0.000987095)
(0.0012621 0 -0.00115177)
(0.00169262 0 -0.00131227)
(0.00217883 0 -0.00146449)
(0.0027182 0 -0.001604)
(0.00330635 0 -0.00172608)
(0.0039369 0 -0.00182588)
(0.00460134 0 -0.00189884)
(0.00528929 0 -0.00194112)
(0.00598887 0 -0.00195007)
(0.00668726 0 -0.00192451)
(0.00737145 0 -0.001865)
(0.00802893 0 -0.00177382)
(0.0086484 0 -0.00165474)
(0.00922033 0 -0.00151275)
(0.00973729 0 -0.00135358)
(0.0101942 0 -0.00118331)
(0.0105883 0 -0.0010079)
(0.0109191 0 -0.000832862)
(0.0111877 0 -0.00066301)
(0.0113971 0 -0.000502302)
(0.0115515 0 -0.000353769)
(0.0116558 0 -0.000219523)
(0.0117155 0 -0.000100824)
(0.0117364 0 1.83206e-06)
(0.0117243 0 8.86157e-05)
(0.0116847 0 0.000160207)
(0.0116229 0 0.000217618)
(0.0115436 0 0.000262085)
(0.0114512 0 0.00029498)
(0.0113494 0 0.000317732)
(0.0112414 0 0.000331763)
(0.01113 0 0.000338442)
(0.0110176 0 0.000339043)
(0.0109058 0 0.000334731)
(0.0107962 0 0.000326544)
(0.0106899 0 0.000315394)
(0.0105878 0 0.000302062)
(0.0104904 0 0.000287212)
(0.0103982 0 0.000271396)
(0.0103113 0 0.000255066)
(0.01023 0 0.000238586)
(0.0101541 0 0.00022224)
(0.0100835 0 0.000206251)
(0.0100182 0 0.000190783)
(0.00995789 0 0.000175953)
(0.00990236 0 0.000161842)
(0.00985136 0 0.0001485)
(0.00980463 0 0.000135951)
(0.0097619 0 0.000124199)
(0.00972292 0 0.000113235)
(0.00968742 0 0.000103037)
(0.00965515 0 9.35753e-05)
(0.00962588 0 8.48136e-05)
(0.00959938 0 7.67122e-05)
(0.00957545 0 6.92285e-05)
(0.00955388 0 6.23187e-05)
(0.0095345 0 5.59387e-05)
(0.00951715 0 5.00446e-05)
(0.00950166 0 4.4593e-05)
(0.0094879 0 3.9542e-05)
(0.00947575 0 3.48506e-05)
(0.00946509 0 3.04792e-05)
(0.00945584 0 2.63896e-05)
(0.00944789 0 2.25451e-05)
(0.00944119 0 1.89098e-05)
(0.00943566 0 1.54491e-05)
(0.00943126 0 1.21294e-05)
(0.00942795 0 8.91774e-06)
(0.0094257 0 5.78175e-06)
(0.00942449 0 2.68963e-06)
(0.00942431 0 -3.89957e-07)
(0.00942517 0 -3.48738e-06)
(0.00942708 0 -6.63385e-06)
(0.00943006 0 -9.86315e-06)
(0.00943415 0 -1.32111e-05)
(0.0094394 0 -1.67157e-05)
(0.00944588 0 -2.0417e-05)
(0.00945365 0 -2.43579e-05)
(0.0094628 0 -2.85847e-05)
(0.00947345 0 -3.31474e-05)
(0.00948572 0 -3.81009e-05)
(0.00949975 0 -4.35054e-05)
(0.0095157 0 -4.94275e-05)
(0.00953377 0 -5.59415e-05)
(0.00955416 0 -6.31304e-05)
(0.00957713 0 -7.10874e-05)
(0.00960294 0 -7.99178e-05)
(0.0096319 0 -8.97408e-05)
(0.00966439 0 -0.000100692)
(0.00970078 0 -0.000112926)
(0.00974155 0 -0.000126621)
(0.00978721 0 -0.00014198)
(0.00983835 0 -0.000159239)
(0.00989564 0 -0.000178673)
(0.00995984 0 -0.000200599)
(0.0100318 0 -0.000225391)
(0.0101126 0 -0.000253485)
(0.0102033 0 -0.0002854)
(0.0103053 0 -0.000321748)
(0.01042 0 -0.000363262)
(0.0105493 0 -0.00041082)
(0.0106952 0 -0.000465481)
(0.0108601 0 -0.000528534)
(0.0110469 0 -0.000601557)
(0.0112589 0 -0.000686496)
(0.0115 0 -0.000785778)
(0.0117749 0 -0.000902459)
(0.0120895 0 -0.00104044)
(0.0124507 0 -0.00120476)
(0.012867 0 -0.0014021)
(0.0133493 0 -0.00164143)
(0.0139113 0 -0.00193524)
(0.0145707 0 -0.00230143)
(0.0153509 0 -0.00276678)
(0.0162825 0 -0.00337297)
(0.0174057 0 -0.00418764)
(0.0187683 0 -0.00532385)
(0.0204172 0 -0.00697212)
(0.0223692 0 -0.00944773)
(0.0245298 0 -0.0132579)
(0.026423 0 -0.0191594)
(0.0265259 0 -0.0278726)
(0.0222151 0 -0.0382805)
(0.0130334 0 -0.0452708)
(0.0014435 0 -0.0461327)
(-0.00856346 0 -0.039878)
(-0.0131671 0 -0.0292698)
(-0.0130511 0 -0.0201223)
(-0.0109885 0 -0.0138121)
(-0.00861995 0 -0.00968474)
(-0.00647643 0 -0.00698488)
(-0.00467577 0 -0.00518075)
(-0.00320676 0 -0.00392616)
(-0.00201184 0 -0.00300542)
(-0.00103145 0 -0.00229039)
(-0.000479697 0 -0.00171134)
(0.000144823 0 -0.000707761)
(0.00030796 0 -0.000910813)
(0.000597314 0 -0.00112525)
(0.000936649 0 -0.00134612)
(0.00133178 0 -0.00156865)
(0.00178811 0 -0.00178764)
(0.00230659 0 -0.0019973)
(0.00288559 0 -0.00219119)
(0.00352123 0 -0.00236232)
(0.00420702 0 -0.0025035)
(0.00493375 0 -0.00260793)
(0.00568969 0 -0.00266984)
(0.00646109 0 -0.00268514)
(0.00723292 0 -0.00265202)
(0.00798983 0 -0.00257118)
(0.00871705 0 -0.00244583)
(0.00940135 0 -0.00228138)
(0.0100317 0 -0.00208497)
(0.0105996 0 -0.00186478)
(0.0110995 0 -0.0016294)
(0.0115287 0 -0.00138722)
(0.0118868 0 -0.00114596)
(0.0121758 0 -0.000912267)
(0.0123993 0 -0.00069158)
(0.0125624 0 -0.000488004)
(0.012671 0 -0.000304358)
(0.0127314 0 -0.000142275)
(0.0127503 0 -2.35235e-06)
(0.0127341 0 0.000115711)
(0.012689 0 0.000212906)
(0.0126207 0 0.000290682)
(0.0125346 0 0.000350785)
(0.0124351 0 0.000395134)
(0.0123264 0 0.000425714)
(0.0122117 0 0.00044449)
(0.0120941 0 0.000453338)
(0.0119758 0 0.000454004)
(0.0118587 0 0.000448075)
(0.0117443 0 0.000436958)
(0.0116337 0 0.000421885)
(0.0115277 0 0.000403912)
(0.011427 0 0.00038393)
(0.0113317 0 0.000362679)
(0.0112422 0 0.000340762)
(0.0111585 0 0.000318664)
(0.0110805 0 0.000296766)
(0.0110082 0 0.00027536)
(0.0109413 0 0.000254663)
(0.0108796 0 0.000234832)
(0.0108228 0 0.00021597)
(0.0107707 0 0.000198142)
(0.010723 0 0.000181378)
(0.0106795 0 0.000165684)
(0.0106398 0 0.000151044)
(0.0106036 0 0.00013743)
(0.0105708 0 0.0001248)
(0.010541 0 0.000113105)
(0.0105141 0 0.000102291)
(0.0104897 0 9.23023e-05)
(0.0104678 0 8.30788e-05)
(0.0104482 0 7.45616e-05)
(0.0104305 0 6.66918e-05)
(0.0104148 0 5.94116e-05)
(0.0104009 0 5.26645e-05)
(0.0103886 0 4.6396e-05)
(0.0103778 0 4.05532e-05)
(0.0103685 0 3.5085e-05)
(0.0103605 0 2.99421e-05)
(0.0103537 0 2.50768e-05)
(0.0103482 0 2.04429e-05)
(0.0103438 0 1.59953e-05)
(0.0103405 0 1.16901e-05)
(0.0103383 0 7.4839e-06)
(0.0103372 0 3.33418e-06)
(0.0103372 0 -8.00993e-07)
(0.0103382 0 -4.9629e-06)
(0.0103402 0 -9.19419e-06)
(0.0103434 0 -1.35403e-05)
(0.0103478 0 -1.80494e-05)
(0.0103533 0 -2.27721e-05)
(0.0103601 0 -2.77622e-05)
(0.0103682 0 -3.30773e-05)
(0.0103778 0 -3.87793e-05)
(0.0103889 0 -4.49353e-05)
(0.0104017 0 -5.16189e-05)
(0.0104163 0 -5.89108e-05)
(0.0104329 0 -6.69003e-05)
(0.0104516 0 -7.5687e-05)
(0.0104728 0 -8.53817e-05)
(0.0104966 0 -9.61093e-05)
(0.0105234 0 -0.00010801)
(0.0105534 0 -0.000121243)
(0.010587 0 -0.000135989)
(0.0106246 0 -0.000152454)
(0.0106667 0 -0.000170873)
(0.0107138 0 -0.000191516)
(0.0107666 0 -0.000214697)
(0.0108255 0 -0.000240775)
(0.0108915 0 -0.00027017)
(0.0109654 0 -0.000303372)
(0.0110482 0 -0.000340954)
(0.011141 0 -0.000383591)
(0.011245 0 -0.000432083)
(0.0113619 0 -0.000487379)
(0.0114932 0 -0.000550616)
(0.011641 0 -0.00062316)
(0.0118075 0 -0.000706667)
(0.0119954 0 -0.000803155)
(0.0122077 0 -0.00091511)
(0.012448 0 -0.00104562)
(0.0127207 0 -0.00119854)
(0.0130307 0 -0.00137882)
(0.0133841 0 -0.00159279)
(0.0137881 0 -0.0018488)
(0.0142514 0 -0.00215801)
(0.0147845 0 -0.00253573)
(0.0154002 0 -0.00300344)
(0.0161135 0 -0.00359213)
(0.0169411 0 -0.00434751)
(0.0178992 0 -0.00533824)
(0.0189961 0 -0.0066679)
(0.0202158 0 -0.00849054)
(0.0214835 0 -0.0110253)
(0.0225987 0 -0.0145579)
(0.0230995 0 -0.0193874)
(0.022053 0 -0.0255647)
(0.018223 0 -0.0321289)
(0.0115035 0 -0.0365416)
(0.0033867 0 -0.0371305)
(-0.00389271 0 -0.0333302)
(-0.00796314 0 -0.0268059)
(-0.00906521 0 -0.0203938)
(-0.00847407 0 -0.0152639)
(-0.00719023 0 -0.0114539)
(-0.00572873 0 -0.00869097)
(-0.00432372 0 -0.00668457)
(-0.00306713 0 -0.00519824)
(-0.00197353 0 -0.00406016)
(-0.00102978 0 -0.00315586)
(-0.000484541 0 -0.00241635)
(0.000145893 0 -0.000916289)
(0.00031 0 -0.00116899)
(0.000601689 0 -0.00143792)
(0.000945677 0 -0.00171784)
(0.00134963 0 -0.00200295)
(0.00182086 0 -0.00228666)
(0.00236203 0 -0.00256128)
(0.00297287 0 -0.00281795)
(0.0036503 0 -0.00304684)
(0.00438786 0 -0.00323776)
(0.00517555 0 -0.00338089)
(0.00599997 0 -0.00346787)
(0.00684496 0 -0.00349272)
(0.00769263 0 -0.00345267)
(0.00852457 0 -0.00334854)
(0.00932315 0 -0.00318473)
(0.0100727 0 -0.00296872)
(0.0107603 0 -0.00271035)
(0.0113764 0 -0.00242082)
(0.0119151 0 -0.0021118)
(0.0123736 0 -0.00179458)
(0.0127523 0 -0.00147941)
(0.0130542 0 -0.00117506)
(0.0132839 0 -0.000888555)
(0.0134478 0 -0.00062513)
(0.013553 0 -0.000388285)
(0.0136069 0 -0.000179952)
(0.0136171 0 -7.2323e-07)
(0.013591 0 0.000149959)
(0.0135354 0 0.000273516)
(0.0134566 0 0.000371944)
(0.0133602 0 0.00044761)
(0.0132511 0 0.000503078)
(0.0131336 0 0.000540974)
(0.0130111 0 0.000563873)
(0.0128866 0 0.000574218)
(0.0127623 0 0.000574265)
(0.0126402 0 0.000566052)
(0.0125215 0 0.000551378)
(0.0124075 0 0.000531806)
(0.0122987 0 0.000508673)
(0.0121956 0 0.000483098)
(0.0120986 0 0.000456009)
(0.0120078 0 0.000428158)
(0.0119231 0 0.000400146)
(0.0118444 0 0.000372444)
(0.0117716 0 0.000345409)
(0.0117044 0 0.000319308)
(0.0116425 0 0.000294328)
(0.0115857 0 0.000270594)
(0.0115336 0 0.00024818)
(0.0114861 0 0.000227121)
(0.0114426 0 0.000207418)
(0.0114031 0 0.000189049)
(0.0113672 0 0.000171974)
(0.0113345 0 0.000156139)
(0.011305 0 0.000141482)
(0.0112782 0 0.000127933)
(0.0112541 0 0.000115418)
(0.0112324 0 0.000103865)
(0.011213 0 9.31962e-05)
(0.0111955 0 8.33387e-05)
(0.01118 0 7.42191e-05)
(0.0111662 0 6.57665e-05)
(0.0111541 0 5.7912e-05)
(0.0111435 0 5.05891e-05)
(0.0111343 0 4.37339e-05)
(0.0111264 0 3.72843e-05)
(0.0111198 0 3.11807e-05)
(0.0111144 0 2.53649e-05)
(0.0111101 0 1.97805e-05)
(0.011107 0 1.43723e-05)
(0.0111049 0 9.08608e-06)
(0.0111039 0 3.86827e-06)
(0.0111039 0 -1.33383e-06)
(0.011105 0 -6.57277e-06)
(0.0111072 0 -1.19029e-05)
(0.0111105 0 -1.73816e-05)
(0.011115 0 -2.30691e-05)
(0.0111206 0 -2.90291e-05)
(0.0111275 0 -3.5329e-05)
(0.0111357 0 -4.20409e-05)
(0.0111454 0 -4.92425e-05)
(0.0111567 0 -5.70182e-05)
(0.0111696 0 -6.54601e-05)
(0.0111843 0 -7.46694e-05)
(0.011201 0 -8.47582e-05)
(0.0112199 0 -9.58507e-05)
(0.0112412 0 -0.000108086)
(0.0112652 0 -0.000121619)
(0.011292 0 -0.000136626)
(0.0113221 0 -0.000153305)
(0.0113558 0 -0.000171879)
(0.0113935 0 -0.000192605)
(0.0114356 0 -0.000215774)
(0.0114827 0 -0.00024172)
(0.0115353 0 -0.000270827)
(0.0115941 0 -0.000303539)
(0.0116597 0 -0.000340371)
(0.0117331 0 -0.00038192)
(0.0118151 0 -0.000428885)
(0.0119068 0 -0.000482085)
(0.0120094 0 -0.000542486)
(0.0121244 0 -0.000611231)
(0.0122531 0 -0.000689683)
(0.0123974 0 -0.000779471)
(0.0125594 0 -0.00088256)
(0.0127413 0 -0.00100134)
(0.0129458 0 -0.00113871)
(0.013176 0 -0.00129828)
(0.0134353 0 -0.00148454)
(0.0137278 0 -0.00170312)
(0.014058 0 -0.00196125)
(0.0144313 0 -0.00226828)
(0.0148536 0 -0.00263649)
(0.0153313 0 -0.00308235)
(0.0158711 0 -0.00362822)
(0.0164791 0 -0.00430492)
(0.0171585 0 -0.0051553)
(0.0179056 0 -0.00623897)
(0.0187012 0 -0.0076376)
(0.019495 0 -0.00945869)
(0.0201799 0 -0.0118323)
(0.0205526 0 -0.0148894)
(0.0202587 0 -0.0186977)
(0.0187535 0 -0.0230992)
(0.0154722 0 -0.0273953)
(0.010465 0 -0.0302338)
(0.00463619 0 -0.0306337)
(-0.000684195 0 -0.0283289)
(-0.0041794 0 -0.0241787)
(-0.00575492 0 -0.0196912)
(-0.00600569 0 -0.0156947)
(-0.00550499 0 -0.0124246)
(-0.00464552 0 -0.00984719)
(-0.00366308 0 -0.00783849)
(-0.00268628 0 -0.00626164)
(-0.00177075 0 -0.00499825)
(-0.000938074 0 -0.00395988)
(-0.000445716 0 -0.00308663)
(0.000139085 0 -0.0011211)
(0.000295951 0 -0.00142318)
(0.000576737 0 -0.00174802)
(0.00091237 0 -0.00209042)
(0.00131295 0 -0.00244368)
(0.00178817 0 -0.00279977)
(0.00234303 0 -0.0031488)
(0.00297915 0 -0.00347897)
(0.00369463 0 -0.00377689)
(0.0044832 0 -0.0040284)
(0.00533388 0 -0.00421974)
(0.00623113 0 -0.004339)
(0.00715564 0 -0.00437758)
(0.00808569 0 -0.00433141)
(0.00899886 0 -0.00420144)
(0.00987381 0 -0.00399363)
(0.0106917 0 -0.00371816)
(0.0114376 0 -0.00338833)
(0.0121006 0 -0.00301916)
(0.0126744 0 -0.00262615)
(0.0131568 0 -0.00222406)
(0.0135491 0 -0.00182613)
(0.0138556 0 -0.00144351)
(0.0140828 0 -0.00108495)
(0.0142385 0 -0.00075682)
(0.0143313 0 -0.000463228)
(0.0143702 0 -0.000206266)
(0.014364 0 1.36487e-05)
(0.0143208 0 0.000197516)
(0.0142484 0 0.000347359)
(0.0141537 0 0.000465881)
(0.0140426 0 0.00055621)
(0.0139204 0 0.000621681)
(0.0137913 0 0.000665665)
(0.0136588 0 0.000691428)
(0.013526 0 0.000702039)
(0.0133949 0 0.000700307)
(0.0132672 0 0.000688747)
(0.0131443 0 0.000669564)
(0.013027 0 0.000644661)
(0.0129159 0 0.00061565)
(0.0128113 0 0.000583877)
(0.0127133 0 0.000550445)
(0.012622 0 0.000516248)
(0.0125372 0 0.00048199)
(0.0124588 0 0.00044822)
(0.0123864 0 0.000415354)
(0.0123198 0 0.000383694)
(0.0122588 0 0.000353452)
(0.0122028 0 0.000324767)
(0.0121517 0 0.000297716)
(0.012105 0 0.000272331)
(0.0120625 0 0.000248606)
(0.0120238 0 0.000226507)
(0.0119888 0 0.000205981)
(0.011957 0 0.000186959)
(0.0119282 0 0.000169361)
(0.0119022 0 0.000153101)
(0.0118788 0 0.000138089)
(0.0118577 0 0.000124234)
(0.0118388 0 0.000111443)
(0.011822 0 9.96257e-05)
(0.0118069 0 8.86944e-05)
(0.0117936 0 7.85627e-05)
(0.0117819 0 6.91476e-05)
(0.0117716 0 6.03689e-05)
(0.0117628 0 5.21494e-05)
(0.0117552 0 4.44147e-05)
(0.0117488 0 3.70928e-05)
(0.0117437 0 3.01142e-05)
(0.0117396 0 2.34111e-05)
(0.0117366 0 1.69172e-05)
(0.0117347 0 1.05674e-05)
(0.0117338 0 4.29736e-06)
(0.0117339 0 -1.95645e-06)
(0.0117351 0 -8.25787e-06)
(0.0117373 0 -1.46729e-05)
(0.0117406 0 -2.12705e-05)
(0.011745 0 -2.81231e-05)
(0.0117506 0 -3.53067e-05)
(0.0117574 0 -4.29021e-05)
(0.0117655 0 -5.09958e-05)
(0.0117751 0 -5.96808e-05)
(0.0117861 0 -6.90581e-05)
(0.0117988 0 -7.92379e-05)
(0.0118132 0 -9.03412e-05)
(0.0118296 0 -0.000102502)
(0.0118482 0 -0.000115868)
(0.011869 0 -0.000130606)
(0.0118924 0 -0.0001469)
(0.0119187 0 -0.000164958)
(0.0119481 0 -0.000185016)
(0.0119809 0 -0.000207339)
(0.0120176 0 -0.000232229)
(0.0120586 0 -0.000260028)
(0.0121043 0 -0.00029113)
(0.0121553 0 -0.000325986)
(0.0122121 0 -0.000365113)
(0.0122755 0 -0.000409109)
(0.0123463 0 -0.000458669)
(0.0124251 0 -0.000514599)
(0.0125131 0 -0.000577843)
(0.0126112 0 -0.000649505)
(0.0127207 0 -0.00073089)
(0.0128429 0 -0.000823539)
(0.0129794 0 -0.00092929)
(0.0131317 0 -0.00105034)
(0.0133019 0 -0.00118934)
(0.013492 0 -0.0013495)
(0.0137043 0 -0.00153476)
(0.0139415 0 -0.00174995)
(0.0142064 0 -0.0020011)
(0.014502 0 -0.00229581)
(0.0148314 0 -0.0026437)
(0.0151976 0 -0.00305718)
(0.0156029 0 -0.00355232)
(0.0160486 0 -0.00415014)
(0.0165329 0 -0.00487824)
(0.0170489 0 -0.0057727)
(0.0175799 0 -0.00687994)
(0.0180922 0 -0.00825759)
(0.0185237 0 -0.00997208)
(0.0187686 0 -0.0120888)
(0.0186587 0 -0.0146481)
(0.0179494 0 -0.0176157)
(0.0163342 0 -0.0207933)
(0.0135676 0 -0.0236978)
(0.00975208 0 -0.0255785)
(0.00544664 0 -0.0258711)
(0.00146177 0 -0.0244485)
(-0.00148334 0 -0.0217386)
(-0.00316069 0 -0.0185801)
(-0.00384929 0 -0.0155204)
(-0.00386318 0 -0.0128158)
(-0.00347012 0 -0.0105328)
(-0.00286426 0 -0.00864258)
(-0.00217258 0 -0.00707859)
(-0.00146646 0 -0.00576795)
(-0.000787575 0 -0.00464852)
(-0.000377367 0 -0.0036719)
(0.0001241 0 -0.00131105)
(0.000265042 0 -0.00166065)
(0.000520864 0 -0.00204221)
(0.000834369 0 -0.0024508)
(0.00121882 0 -0.00287887)
(0.00168694 0 -0.00331679)
(0.00224683 0 -0.00375213)
(0.00290268 0 -0.00416947)
(0.00365424 0 -0.00455092)
(0.00449562 0 -0.00487714)
(0.00541465 0 -0.00512904)
(0.00639297 0 -0.00528991)
(0.00740708 0 -0.00534759)
(0.00843021 0 -0.00529619)
(0.00943466 0 -0.00513689)
(0.0103942 0 -0.00487775)
(0.0112863 0 -0.00453256)
(0.0120931 0 -0.00411916)
(0.0128027 0 -0.00365748)
(0.0134084 0 -0.00316777)
(0.013909 0 -0.00266905)
(0.0143073 0 -0.00217804)
(0.0146096 0 -0.00170856)
(0.0148244 0 -0.00127121)
(0.0149617 0 -0.000873455)
(0.0150322 0 -0.000519843)
(0.0150465 0 -0.000212424)
(0.0150149 0 4.88221e-05)
(0.0149466 0 0.000265572)
(0.0148504 0 0.000440686)
(0.0147336 0 0.000577789)
(0.0146028 0 0.000680954)
(0.0144631 0 0.000754445)
(0.0143191 0 0.000802496)
(0.0141742 0 0.000829157)
(0.0140312 0 0.00083819)
(0.0138919 0 0.000832996)
(0.0137579 0 0.000816591)
(0.0136303 0 0.000791594)
(0.0135097 0 0.000760243)
(0.0133964 0 0.000724419)
(0.0132905 0 0.000685676)
(0.0131921 0 0.000645279)
(0.0131009 0 0.00060424)
(0.0130167 0 0.000563355)
(0.0129392 0 0.000523231)
(0.0128681 0 0.000484324)
(0.0128029 0 0.000446963)
(0.0127433 0 0.00041137)
(0.0126889 0 0.000377686)
(0.0126393 0 0.000345984)
(0.0125942 0 0.000316284)
(0.0125533 0 0.000288567)
(0.0125161 0 0.000262783)
(0.0124824 0 0.000238862)
(0.0124519 0 0.000216713)
(0.0124244 0 0.00019624)
(0.0123995 0 0.000177337)
(0.0123772 0 0.000159895)
(0.0123571 0 0.000143805)
(0.0123391 0 0.000128957)
(0.0123231 0 0.000115244)
(0.0123088 0 0.000102562)
(0.0122962 0 9.08092e-05)
(0.0122851 0 7.9889e-05)
(0.0122754 0 6.97073e-05)
(0.012267 0 6.01738e-05)
(0.0122598 0 5.12017e-05)
(0.0122538 0 4.27074e-05)
(0.012249 0 3.46097e-05)
(0.0122452 0 2.68301e-05)
(0.0122424 0 1.92915e-05)
(0.0122406 0 1.19182e-05)
(0.0122398 0 4.63555e-06)
(0.01224 0 -2.63073e-06)
(0.0122412 0 -9.95546e-06)
(0.0122433 0 -1.74158e-05)
(0.0122465 0 -2.5092e-05)
(0.0122508 0 -3.30677e-05)
(0.0122562 0 -4.14311e-05)
(0.0122628 0 -5.02757e-05)
(0.0122706 0 -5.97013e-05)
(0.0122797 0 -6.98157e-05)
(0.0122903 0 -8.07353e-05)
(0.0123024 0 -9.25875e-05)
(0.0123163 0 -0.000105512)
(0.0123319 0 -0.000119663)
(0.0123496 0 -0.000135211)
(0.0123695 0 -0.000152346)
(0.0123918 0 -0.000171281)
(0.0124168 0 -0.000192254)
(0.0124447 0 -0.000215533)
(0.0124759 0 -0.000241421)
(0.0125107 0 -0.000270261)
(0.0125495 0 -0.000302443)
(0.0125928 0 -0.00033841)
(0.0126409 0 -0.000378671)
(0.0126944 0 -0.000423807)
(0.012754 0 -0.000474487)
(0.0128203 0 -0.000531485)
(0.012894 0 -0.000595696)
(0.012976 0 -0.00066816)
(0.0130671 0 -0.000750091)
(0.0131683 0 -0.000842912)
(0.0132808 0 -0.000948295)
(0.0134058 0 -0.00106822)
(0.0135445 0 -0.00120503)
(0.0136984 0 -0.00136153)
(0.013869 0 -0.0015411)
(0.0140579 0 -0.0017478)
(0.0142668 0 -0.00198659)
(0.0144972 0 -0.00226353)
(0.0147505 0 -0.00258613)
(0.0150278 0 -0.00296369)
(0.0153295 0 -0.00340786)
(0.0156544 0 -0.00393323)
(0.0159993 0 -0.0045581)
(0.0163571 0 -0.00530526)
(0.0167144 0 -0.00620264)
(0.017048 0 -0.00728326)