/*--------------------------------*- C++ -*----------------------------------*\
  =========                 |
  \\      /  F ield         | OpenFOAM: The Open Source CFD Toolbox
   \\    /   O peration     | Website:  https://openfoam.org
    \\  /    A nd           | Version:  12
     \\/     M anipulation  |
\*---------------------------------------------------------------------------*/
FoamFile
{
    format      ascii;
    class       volVectorField;
    location    "10";
    object      UMean;
}
// * * * * * * * * * * * * * * * * * * * * * * * * * * * * * * * * * * * * * //

dimensions      [0 1 -1 0 0 0 0];

internalField   nonuniform List<vector> 
4480
(
(0.000117095 0 -0.000117483)
(0.000248034 0 -0.000154023)
(0.000487327 0 -0.000177624)
(0.000757711 0 -0.000199013)
(0.00105226 0 -0.000216935)
(0.00136874 0 -0.000231221)
(0.00170336 0 -0.000242423)
(0.00205211 0 -0.000250974)
(0.00241143 0 -0.000257056)
(0.00277792 0 -0.0002607)
(0.00314812 0 -0.000261864)
(0.00351845 0 -0.000260485)
(0.00388524 0 -0.000256525)
(0.00424478 0 -0.000250013)
(0.00459345 0 -0.00024106)
(0.00492786 0 -0.000229871)
(0.00524497 0 -0.000216738)
(0.00554223 0 -0.000202024)
(0.00581764 0 -0.000186135)
(0.00606981 0 -0.0001695)
(0.00629797 0 -0.000152542)
(0.00650196 0 -0.000135653)
(0.00668213 0 -0.000119184)
(0.00683932 0 -0.000103425)
(0.00697473 0 -8.86067e-05)
(0.00708983 0 -7.48956e-05)
(0.0071863 0 -6.23985e-05)
(0.00726594 0 -5.11677e-05)
(0.00733056 0 -4.12111e-05)
(0.00738198 0 -3.2495e-05)
(0.00742191 0 -2.49589e-05)
(0.00745198 0 -1.8523e-05)
(0.0074737 0 -1.30932e-05)
(0.00748842 0 -8.57104e-06)
(0.00749736 0 -4.85843e-06)
(0.00750161 0 -1.85525e-06)
(0.00750209 0 5.3362e-07)
(0.00749961 0 2.39572e-06)
(0.00749487 0 3.80998e-06)
(0.00748843 0 4.84996e-06)
(0.00748077 0 5.58029e-06)
(0.0074723 0 6.05543e-06)
(0.00746333 0 6.32528e-06)
(0.00745413 0 6.43076e-06)
(0.00744489 0 6.40698e-06)
(0.00743578 0 6.28378e-06)
(0.00742692 0 6.08501e-06)
(0.00741839 0 5.83014e-06)
(0.00741026 0 5.53622e-06)
(0.00740258 0 5.21632e-06)
(0.00739538 0 4.88064e-06)
(0.00738867 0 4.53701e-06)
(0.00738245 0 4.19125e-06)
(0.00737672 0 3.84802e-06)
(0.00737148 0 3.51068e-06)
(0.00736672 0 3.18143e-06)
(0.00736242 0 2.86159e-06)
(0.00735857 0 2.55177e-06)
(0.00735515 0 2.25196e-06)
(0.00735215 0 1.96179e-06)
(0.00734956 0 1.68066e-06)
(0.00734736 0 1.40753e-06)
(0.00734554 0 1.14096e-06)
(0.0073441 0 8.79471e-07)
(0.00734303 0 6.21429e-07)
(0.00734232 0 3.65018e-07)
(0.00734197 0 1.08218e-07)
(0.00734199 0 -1.51051e-07)
(0.00734237 0 -4.14968e-07)
(0.00734314 0 -6.86019e-07)
(0.00734429 0 -9.66703e-07)
(0.00734585 0 -1.2596e-06)
(0.00734783 0 -1.56756e-06)
(0.00735026 0 -1.89364e-06)
(0.00735317 0 -2.24111e-06)
(0.00735658 0 -2.61353e-06)
(0.00736054 0 -3.01476e-06)
(0.00736508 0 -3.44917e-06)
(0.00737027 0 -3.92153e-06)
(0.00737615 0 -4.43708e-06)
(0.00738279 0 -5.00163e-06)
(0.00739026 0 -5.62156e-06)
(0.00739865 0 -6.30397e-06)
(0.00740805 0 -7.05676e-06)
(0.00741857 0 -7.88877e-06)
(0.00743032 0 -8.80987e-06)
(0.00744343 0 -9.83118e-06)
(0.00745806 0 -1.09652e-05)
(0.00747438 0 -1.22261e-05)
(0.00749257 0 -1.36297e-05)
(0.00751285 0 -1.51944e-05)
(0.00753546 0 -1.69407e-05)
(0.00756067 0 -1.88923e-05)
(0.00758878 0 -2.10763e-05)
(0.00762015 0 -2.35237e-05)
(0.00765517 0 -2.62705e-05)
(0.00769429 0 -2.93583e-05)
(0.00773802 0 -3.28355e-05)
(0.00778694 0 -3.67586e-05)
(0.00784174 0 -4.11941e-05)
(0.00790317 0 -4.62202e-05)
(0.00797214 0 -5.19297e-05)
(0.00804967 0 -5.84333e-05)
(0.00813697 0 -6.58637e-05)
(0.00823544 0 -7.43808e-05)
(0.00834674 0 -8.41791e-05)
(0.00847281 0 -9.54957e-05)
(0.00861598 0 -0.000108623)
(0.00877901 0 -0.000123922)
(0.00896525 0 -0.000141843)
(0.00917871 0 -0.000162952)
(0.00942434 0 -0.000187958)
(0.00970817 0 -0.000217759)
(0.0100377 0 -0.000253481)
(0.0104221 0 -0.000296531)
(0.0108732 0 -0.000348628)
(0.0114052 0 -0.000411792)
(0.0120361 0 -0.000488256)
(0.0127888 0 -0.000580606)
(0.0136936 0 -0.000694065)
(0.0147881 0 -0.000845273)
(0.016088 0 -0.00107988)
(0.0176125 0 -0.0015227)
(0.0201264 0 -0.00279581)
(0.0275467 0 -0.00838953)
(0.0412298 0 -0.0311076)
(0.0453384 0 -0.0800221)
(0.0218541 0 -0.100645)
(-0.00788583 0 -0.103662)
(-0.0343119 0 -0.0846812)
(-0.0308465 0 -0.0323953)
(-0.0162781 0 -0.00894379)
(-0.00850586 0 -0.00290375)
(-0.0060657 0 -0.00149024)
(-0.00466186 0 -0.00102105)
(-0.00344168 0 -0.0007978)
(-0.0023894 0 -0.000664242)
(-0.00149619 0 -0.00056124)
(-0.000747616 0 -0.00046977)
(-0.000349975 0 -0.000349378)
(0.000152335 0 -0.000247879)
(0.000316695 0 -0.000319044)
(0.000604736 0 -0.000374287)
(0.000925897 0 -0.000419475)
(0.00127512 0 -0.000456568)
(0.00165019 0 -0.0004866)
(0.00204684 0 -0.000510534)
(0.0024606 0 -0.000529027)
(0.00288734 0 -0.000542365)
(0.00332303 0 -0.000550559)
(0.00376353 0 -0.000553481)
(0.00420457 0 -0.00055097)
(0.00464171 0 -0.000542931)
(0.00507052 0 -0.000529412)
(0.00548664 0 -0.00051065)
(0.00588601 0 -0.000487082)
(0.00626499 0 -0.000459335)
(0.00662051 0 -0.000428185)
(0.00695018 0 -0.000394511)
(0.00725233 0 -0.00035923)
(0.00752603 0 -0.000323248)
(0.00777107 0 -0.000287411)
(0.00798786 0 -0.000252462)
(0.00817736 0 -0.000219025)
(0.00834097 0 -0.00018759)
(0.00848045 0 -0.000158511)
(0.00859777 0 -0.000132013)
(0.00869501 0 -0.00010821)
(0.00877434 0 -8.7111e-05)
(0.00883788 0 -6.86462e-05)
(0.00888768 0 -5.2686e-05)
(0.00892566 0 -3.906e-05)
(0.0089536 0 -2.75707e-05)
(0.00897311 0 -1.80078e-05)
(0.00898564 0 -1.01587e-05)
(0.00899246 0 -3.81252e-06)
(0.0089947 0 1.23147e-06)
(0.00899331 0 5.15977e-06)
(0.00898911 0 8.14221e-06)
(0.00898279 0 1.03328e-05)
(0.00897493 0 1.18678e-05)
(0.00896599 0 1.28651e-05)
(0.00895638 0 1.34281e-05)
(0.0089464 0 1.36443e-05)
(0.0089363 0 1.3588e-05)
(0.00892627 0 1.33214e-05)
(0.00891647 0 1.28958e-05)
(0.008907 0 1.23531e-05)
(0.00889795 0 1.17281e-05)
(0.00888938 0 1.10482e-05)
(0.00888132 0 1.03351e-05)
(0.00887379 0 9.60553e-06)
(0.00886682 0 8.87223e-06)
(0.00886039 0 8.1448e-06)
(0.0088545 0 7.43013e-06)
(0.00884915 0 6.7328e-06)
(0.00884432 0 6.05557e-06)
(0.00883999 0 5.39973e-06)
(0.00883616 0 4.76536e-06)
(0.0088328 0 4.1516e-06)
(0.00882991 0 3.55693e-06)
(0.00882746 0 2.97913e-06)
(0.00882545 0 2.41536e-06)
(0.00882388 0 1.86246e-06)
(0.00882272 0 1.31691e-06)
(0.00882199 0 7.74842e-07)
(0.00882168 0 2.32079e-07)
(0.00882179 0 -3.15812e-07)
(0.00882234 0 -8.73521e-07)
(0.00882332 0 -1.44612e-06)
(0.00882476 0 -2.03891e-06)
(0.00882667 0 -2.65749e-06)
(0.00882908 0 -3.30786e-06)
(0.00883201 0 -3.99647e-06)
(0.00883551 0 -4.73019e-06)
(0.0088396 0 -5.51653e-06)
(0.00884434 0 -6.36374e-06)
(0.00884977 0 -7.28098e-06)
(0.00885595 0 -8.27834e-06)
(0.00886296 0 -9.36689e-06)
(0.00887087 0 -1.05588e-05)
(0.00887977 0 -1.18676e-05)
(0.00888976 0 -1.33083e-05)
(0.00890094 0 -1.48975e-05)
(0.00891344 0 -1.66538e-05)
(0.0089274 0 -1.85982e-05)
(0.00894299 0 -2.07539e-05)
(0.00896037 0 -2.31475e-05)
(0.00897975 0 -2.58086e-05)
(0.00900135 0 -2.8771e-05)
(0.00902543 0 -3.2073e-05)
(0.00905226 0 -3.57581e-05)
(0.00908217 0 -3.98761e-05)
(0.00911553 0 -4.4484e-05)
(0.00915274 0 -4.96473e-05)
(0.00919428 0 -5.54417e-05)
(0.00924066 0 -6.19548e-05)
(0.0092925 0 -6.92883e-05)
(0.00935048 0 -7.75613e-05)
(0.00941539 0 -8.69132e-05)
(0.00948815 0 -9.75087e-05)
(0.0095698 0 -0.000109543)
(0.00966155 0 -0.000123247)
(0.00976481 0 -0.000138901)
(0.00988123 0 -0.00015684)
(0.0100127 0 -0.000177472)
(0.0101616 0 -0.000201294)
(0.0103305 0 -0.000228918)
(0.0105227 0 -0.000261102)
(0.0107421 0 -0.000298794)
(0.0109933 0 -0.000343182)
(0.0112821 0 -0.000395773)
(0.0116154 0 -0.000458491)
(0.0120021 0 -0.000533803)
(0.0124531 0 -0.000624908)
(0.0129824 0 -0.000735985)
(0.0136086 0 -0.00087259)
(0.0143567 0 -0.00104234)
(0.0152625 0 -0.00125649)
(0.0163817 0 -0.00153467)
(0.0178033 0 -0.00191809)
(0.0196675 0 -0.00249783)
(0.0222405 0 -0.00347315)
(0.0262292 0 -0.00540361)
(0.0329625 0 -0.0104049)
(0.0401578 0 -0.0251277)
(0.0365953 0 -0.0568718)
(0.0187402 0 -0.0744585)
(-0.00455646 0 -0.0764564)
(-0.0241648 0 -0.0602196)
(-0.0280272 0 -0.0265822)
(-0.0203154 0 -0.0108819)
(-0.0132509 0 -0.00548083)
(-0.00913393 0 -0.00341633)
(-0.00650099 0 -0.00241944)
(-0.00459238 0 -0.00186154)
(-0.00312914 0 -0.00150518)
(-0.00196121 0 -0.00123753)
(-0.00100449 0 -0.0010026)
(-0.0004762 0 -0.000757952)
(0.000172121 0 -0.000483691)
(0.000364019 0 -0.000605286)
(0.000690788 0 -0.000705629)
(0.00105095 0 -0.000788528)
(0.00144118 0 -0.000857062)
(0.00185995 0 -0.000913229)
(0.002303 0 -0.000958519)
(0.00276574 0 -0.000993868)
(0.0032438 0 -0.00101964)
(0.00373278 0 -0.00103577)
(0.00422804 0 -0.00104195)
(0.00472469 0 -0.00103786)
(0.00521761 0 -0.00102328)
(0.00570164 0 -0.000998307)
(0.00617171 0 -0.00096338)
(0.00662305 0 -0.000919331)
(0.00705143 0 -0.000867347)
(0.00745328 0 -0.000808906)
(0.00782585 0 -0.000745668)
(0.00816722 0 -0.000679375)
(0.00847636 0 -0.000611737)
(0.00875304 0 -0.000544347)
(0.00899778 0 -0.000478611)
(0.00921172 0 -0.000415703)
(0.0093965 0 -0.000356544)
(0.00955411 0 -0.000301798)
(0.00968682 0 -0.000251891)
(0.00979702 0 -0.000207034)
(0.00988714 0 -0.000167247)
(0.0099596 0 -0.000132404)
(0.0100167 0 -0.000102262)
(0.0100606 0 -7.65031e-05)
(0.0100932 0 -5.47584e-05)
(0.0101165 0 -3.6634e-05)
(0.0101319 0 -2.17281e-05)
(0.010141 0 -9.64724e-06)
(0.0101449 0 -1.61759e-08)
(0.0101448 0 7.51496e-06)
(0.0101415 0 1.32662e-05)
(0.0101357 0 1.75247e-05)
(0.0101282 0 2.0545e-05)
(0.0101195 0 2.25503e-05)
(0.0101099 0 2.37327e-05)
(0.0100999 0 2.4257e-05)
(0.0100896 0 2.42624e-05)
(0.0100794 0 2.38655e-05)
(0.0100694 0 2.31632e-05)
(0.0100597 0 2.2235e-05)
(0.0100504 0 2.11453e-05)
(0.0100415 0 1.99459e-05)
(0.0100332 0 1.86778e-05)
(0.0100255 0 1.73732e-05)
(0.0100182 0 1.60565e-05)
(0.0100116 0 1.47459e-05)
(0.0100055 0 1.34546e-05)
(0.00999997 0 1.21915e-05)
(0.00999498 0 1.0962e-05)
(0.00999052 0 9.76892e-06)
(0.00998657 0 8.6128e-06)
(0.00998313 0 7.4923e-06)
(0.00998017 0 6.40465e-06)
(0.00997768 0 5.34588e-06)
(0.00997566 0 4.3111e-06)
(0.0099741 0 3.29454e-06)
(0.00997298 0 2.28977e-06)
(0.00997232 0 1.28972e-06)
(0.00997211 0 2.86768e-07)
(0.00997235 0 -7.27247e-07)
(0.00997306 0 -1.76105e-06)
(0.00997424 0 -2.82389e-06)
(0.00997592 0 -3.9256e-06)
(0.00997811 0 -5.07669e-06)
(0.00998084 0 -6.28832e-06)
(0.00998414 0 -7.57247e-06)
(0.00998806 0 -8.94199e-06)
(0.00999262 0 -1.04109e-05)
(0.0099979 0 -1.19948e-05)
(0.0100039 0 -1.37106e-05)
(0.0100108 0 -1.55772e-05)
(0.0100186 0 -1.76152e-05)
(0.0100273 0 -1.98474e-05)
(0.0100372 0 -2.22991e-05)
(0.0100482 0 -2.49982e-05)
(0.0100605 0 -2.79758e-05)
(0.0100743 0 -3.12669e-05)
(0.0100898 0 -3.49103e-05)
(0.0101069 0 -3.89498e-05)
(0.0101261 0 -4.34348e-05)
(0.0101475 0 -4.84207e-05)
(0.0101713 0 -5.39705e-05)
(0.0101978 0 -6.01557e-05)
(0.0102273 0 -6.70575e-05)
(0.0102603 0 -7.47687e-05)
(0.0102969 0 -8.33954e-05)
(0.0103379 0 -9.30597e-05)
(0.0103835 0 -0.000103902)
(0.0104344 0 -0.000116086)
(0.0104913 0 -0.000129799)
(0.010555 0 -0.000145264)
(0.0106261 0 -0.000162737)
(0.0107058 0 -0.000182525)
(0.0107951 0 -0.000204986)
(0.0108954 0 -0.000230551)
(0.0110082 0 -0.000259732)
(0.0111351 0 -0.000293147)
(0.0112783 0 -0.000331545)
(0.0114402 0 -0.00037584)
(0.0116235 0 -0.000427152)
(0.0118316 0 -0.000486871)
(0.0120686 0 -0.00055673)
(0.0123393 0 -0.000638908)
(0.0126495 0 -0.000736178)
(0.0130066 0 -0.000852104)
(0.0134193 0 -0.00099133)
(0.0138991 0 -0.00116002)
(0.0144603 0 -0.00136655)
(0.0151223 0 -0.00162275)
(0.0159112 0 -0.00194611)
(0.0168639 0 -0.00236435)
(0.0180351 0 -0.00292522)
(0.0195051 0 -0.00371767)
(0.021389 0 -0.00491374)
(0.0238484 0 -0.00684653)
(0.0270867 0 -0.0101923)
(0.0309927 0 -0.0164265)
(0.0333413 0 -0.0281801)
(0.0286692 0 -0.0453536)
(0.015788 0 -0.0562746)
(-0.000964455 0 -0.0574838)
(-0.0150519 0 -0.0473899)
(-0.0200436 0 -0.0294934)
(-0.0175124 0 -0.0171125)
(-0.0133312 0 -0.0105008)
(-0.00985487 0 -0.00696447)
(-0.00720035 0 -0.00496169)
(-0.00515395 0 -0.00375943)
(-0.00354441 0 -0.00297791)
(-0.00224159 0 -0.00241128)
(-0.00115916 0 -0.0019459)
(-0.000540538 0 -0.00151377)
(0.000187358 0 -0.000743448)
(0.000396255 0 -0.000916457)
(0.000749997 0 -0.00106169)
(0.001138 0 -0.0011831)
(0.00155773 0 -0.00128445)
(0.00200835 0 -0.00136849)
(0.00248583 0 -0.00143711)
(0.00298569 0 -0.00149136)
(0.00350353 0 -0.00153151)
(0.0040347 0 -0.00155726)
(0.00457416 0 -0.00156799)
(0.00511639 0 -0.00156306)
(0.00565557 0 -0.00154209)
(0.0061857 0 -0.00150518)
(0.00670088 0 -0.00145298)
(0.00719557 0 -0.00138678)
(0.00766486 0 -0.00130843)
(0.00810463 0 -0.0012202)
(0.00851174 0 -0.00112468)
(0.0088841 0 -0.00102453)
(0.00922059 0 -0.000922402)
(0.00952107 0 -0.00082071)
(0.00978624 0 -0.000721593)
(0.0100175 0 -0.000626821)
(0.0102168 0 -0.000537774)
(0.0103864 0 -0.00045544)
(0.0105289 0 -0.000380442)
(0.0106471 0 -0.000313077)
(0.0107436 0 -0.000253365)
(0.0108211 0 -0.000201099)
(0.0108823 0 -0.000155904)
(0.0109293 0 -0.000117292)
(0.0109644 0 -8.46987e-05)
(0.0109896 0 -5.75275e-05)
(0.0110065 0 -3.5171e-05)
(0.0110167 0 -1.70362e-05)
(0.0110215 0 -2.55889e-06)
(0.0110221 0 8.78552e-06)
(0.0110193 0 1.74756e-05)
(0.011014 0 2.39405e-05)
(0.0110068 0 2.856e-05)
(0.0109983 0 3.16659e-05)
(0.010989 0 3.35447e-05)
(0.0109791 0 3.44408e-05)
(0.010969 0 3.45614e-05)
(0.010959 0 3.40794e-05)
(0.010949 0 3.31386e-05)
(0.0109394 0 3.18568e-05)
(0.0109302 0 3.03298e-05)
(0.0109214 0 2.86344e-05)
(0.0109132 0 2.68317e-05)
(0.0109055 0 2.49693e-05)
(0.0108984 0 2.30837e-05)
(0.0108918 0 2.12021e-05)
(0.0108857 0 1.93442e-05)
(0.0108803 0 1.75234e-05)
(0.0108753 0 1.57481e-05)
(0.010871 0 1.40227e-05)
(0.0108671 0 1.23482e-05)
(0.0108637 0 1.07228e-05)
(0.0108608 0 9.14268e-06)
(0.0108584 0 7.60224e-06)
(0.0108565 0 6.09436e-06)
(0.010855 0 4.61076e-06)
(0.010854 0 3.14207e-06)
(0.0108534 0 1.67801e-06)
(0.0108534 0 2.07453e-07)
(0.0108537 0 -1.28155e-06)
(0.0108546 0 -2.80177e-06)
(0.0108559 0 -4.36682e-06)
(0.0108578 0 -5.99117e-06)
(0.0108602 0 -7.69031e-06)
(0.0108631 0 -9.48074e-06)
(0.0108666 0 -1.13802e-05)
(0.0108708 0 -1.34077e-05)
(0.0108757 0 -1.55842e-05)
(0.0108813 0 -1.79326e-05)
(0.0108877 0 -2.04781e-05)
(0.0108949 0 -2.32485e-05)
(0.0109031 0 -2.62744e-05)
(0.0109123 0 -2.95895e-05)
(0.0109227 0 -3.32311e-05)
(0.0109343 0 -3.72406e-05)
(0.0109473 0 -4.16642e-05)
(0.0109618 0 -4.65533e-05)
(0.010978 0 -5.19657e-05)
(0.0109961 0 -5.79659e-05)
(0.0110162 0 -6.46269e-05)
(0.0110386 0 -7.20306e-05)
(0.0110636 0 -8.02701e-05)
(0.0110914 0 -8.94505e-05)
(0.0111224 0 -9.96916e-05)
(0.0111569 0 -0.00011113)
(0.0111953 0 -0.000123922)
(0.0112381 0 -0.000138246)
(0.0112858 0 -0.000154309)
(0.011339 0 -0.000172349)
(0.0113984 0 -0.000192642)
(0.0114647 0 -0.000215511)
(0.0115388 0 -0.000241332)
(0.0116217 0 -0.000270548)
(0.0117145 0 -0.000303682)
(0.0118185 0 -0.000341353)
(0.0119352 0 -0.000384304)
(0.0120664 0 -0.000433422)
(0.012214 0 -0.000489783)
(0.0123805 0 -0.000554694)
(0.0125685 0 -0.000629756)
(0.0127813 0 -0.000716944)
(0.0130227 0 -0.000818718)
(0.0132973 0 -0.000938172)
(0.0136106 0 -0.00107923)
(0.0139693 0 -0.00124697)
(0.0143814 0 -0.00144799)
(0.014857 0 -0.00169114)
(0.0154089 0 -0.00198854)
(0.0160534 0 -0.00235736)
(0.0168114 0 -0.00282289)
(0.0177107 0 -0.00342412)
(0.0187868 0 -0.00422395)
(0.0200823 0 -0.00532756)
(0.021638 0 -0.00691345)
(0.0234667 0 -0.00928093)
(0.0254745 0 -0.0129205)
(0.0271969 0 -0.01858)
(0.0271364 0 -0.0269933)
(0.0226944 0 -0.0370904)
(0.0134239 0 -0.0438334)
(0.00178645 0 -0.0446262)
(-0.00831889 0 -0.0385321)
(-0.0130428 0 -0.0282285)
(-0.013077 0 -0.0194393)
(-0.0111657 0 -0.013474)
(-0.00891786 0 -0.00964385)
(-0.00684654 0 -0.00718411)
(-0.00506369 0 -0.00556614)
(-0.00356082 0 -0.00444905)
(-0.00228763 0 -0.00361825)
(-0.00119594 0 -0.00293999)
(-0.000559767 0 -0.00232904)
(0.000196984 0 -0.00101706)
(0.000415868 0 -0.00124385)
(0.000786384 0 -0.00143518)
(0.00119234 0 -0.00159643)
(0.00163184 0 -0.00173235)
(0.00210471 0 -0.00184642)
(0.0026074 0 -0.00194088)
(0.00313568 0 -0.00201673)
(0.00368526 0 -0.00207397)
(0.00425135 0 -0.00211179)
(0.00482845 0 -0.00212905)
(0.0054104 0 -0.00212464)
(0.00599045 0 -0.00209785)
(0.00656163 0 -0.00204873)
(0.00711699 0 -0.00197815)
(0.00765002 0 -0.00188794)
(0.00815498 0 -0.00178074)
(0.00862713 0 -0.00165981)
(0.00906293 0 -0.00152881)
(0.00946007 0 -0.00139153)
(0.00981748 0 -0.00125167)
(0.0101352 0 -0.00111262)
(0.0104142 0 -0.000977325)
(0.0106563 0 -0.000848201)
(0.0108638 0 -0.000727113)
(0.0110394 0 -0.000615374)
(0.0111862 0 -0.000513787)
(0.0113072 0 -0.000422708)
(0.0114055 0 -0.000342119)
(0.011484 0 -0.0002717)
(0.0115455 0 -0.000210906)
(0.0115925 0 -0.000159043)
(0.0116274 0 -0.000115325)
(0.0116522 0 -7.89212e-05)
(0.0116687 0 -4.89969e-05)
(0.0116785 0 -2.474e-05)
(0.0116829 0 -5.3825e-06)
(0.0116832 0 9.78676e-06)
(0.0116801 0 2.14137e-05)
(0.0116747 0 3.0076e-05)
(0.0116674 0 3.62828e-05)
(0.0116589 0 4.04781e-05)
(0.0116496 0 4.30438e-05)
(0.0116399 0 4.43058e-05)
(0.0116299 0 4.45387e-05)
(0.01162 0 4.39723e-05)
(0.0116103 0 4.27968e-05)
(0.0116009 0 4.11681e-05)
(0.0115918 0 3.92127e-05)
(0.0115833 0 3.70321e-05)
(0.0115753 0 3.47069e-05)
(0.0115678 0 3.22996e-05)
(0.0115609 0 2.98584e-05)
(0.0115545 0 2.74193e-05)
(0.0115487 0 2.50081e-05)
(0.0115434 0 2.26427e-05)
(0.0115387 0 2.03341e-05)
(0.0115345 0 1.80881e-05)
(0.0115307 0 1.5906e-05)
(0.0115275 0 1.37857e-05)
(0.0115248 0 1.17222e-05)
(0.0115225 0 9.70803e-06)
(0.0115207 0 7.73404e-06)
(0.0115194 0 5.78932e-06)
(0.0115185 0 3.86158e-06)
(0.0115181 0 1.93734e-06)
(0.0115181 0 1.95264e-09)
(0.0115186 0 -1.96031e-06)
(0.0115196 0 -3.96628e-06)
(0.011521 0 -6.03392e-06)
(0.011523 0 -8.18238e-06)
(0.0115255 0 -1.04321e-05)
(0.0115285 0 -1.28051e-05)
(0.0115322 0 -1.53248e-05)
(0.0115365 0 -1.80167e-05)
(0.0115415 0 -2.09084e-05)
(0.0115472 0 -2.40305e-05)
(0.0115537 0 -2.74163e-05)
(0.0115611 0 -3.11028e-05)
(0.0115695 0 -3.51304e-05)
(0.0115788 0 -3.95438e-05)
(0.0115894 0 -4.43925e-05)
(0.0116012 0 -4.97313e-05)
(0.0116144 0 -5.56214e-05)
(0.0116291 0 -6.2131e-05)
(0.0116456 0 -6.93365e-05)
(0.0116639 0 -7.73234e-05)
(0.0116843 0 -8.61879e-05)
(0.011707 0 -9.60386e-05)
(0.0117323 0 -0.000106998)
(0.0117604 0 -0.000119205)
(0.0117917 0 -0.000132816)
(0.0118265 0 -0.000148013)
(0.0118653 0 -0.000164999)
(0.0119085 0 -0.000184009)
(0.0119565 0 -0.000205313)
(0.0120101 0 -0.000229223)
(0.0120698 0 -0.000256098)
(0.0121364 0 -0.000286358)
(0.0122107 0 -0.00032049)
(0.0122937 0 -0.000359067)
(0.0123864 0 -0.000402763)
(0.0124901 0 -0.000452375)
(0.0126063 0 -0.000508852)
(0.0127365 0 -0.000573328)
(0.0128826 0 -0.000647168)
(0.0130468 0 -0.000732026)
(0.0132316 0 -0.000829918)
(0.0134399 0 -0.000943321)
(0.013675 0 -0.0010753)
(0.013941 0 -0.00122971)
(0.0142424 0 -0.00141138)
(0.0145849 0 -0.00162656)
(0.014975 0 -0.00188332)
(0.0154205 0 -0.0021924)
(0.0159306 0 -0.00256832)
(0.0165166 0 -0.00303127)
(0.0171913 0 -0.00361006)
(0.0179686 0 -0.00434692)
(0.0188618 0 -0.00530518)
(0.019876 0 -0.00658073)
(0.0209935 0 -0.00831747)
(0.0221408 0 -0.010723)
(0.0231242 0 -0.014074)
(0.0234962 0 -0.0186683)
(0.0223455 0 -0.0245733)
(0.018455 0 -0.0308681)
(0.0117248 0 -0.0350755)
(0.0036348 0 -0.0356011)
(-0.00363988 0 -0.0319287)
(-0.00774741 0 -0.0256718)
(-0.0089277 0 -0.019594)
(-0.00843744 0 -0.0148084)
(-0.00725216 0 -0.011318)
(-0.00586727 0 -0.00883322)
(-0.00450517 0 -0.00705732)
(-0.00325373 0 -0.00575111)
(-0.00212939 0 -0.00473745)
(-0.00112608 0 -0.00389086)
(-0.00053095 0 -0.00312136)
(0.000201023 0 -0.00129945)
(0.000424292 0 -0.00158192)
(0.000802689 0 -0.00182093)
(0.00121792 0 -0.00202387)
(0.00166887 0 -0.00219674)
(0.00215617 0 -0.00234379)
(0.00267693 0 -0.00246748)
(0.00322742 0 -0.00256862)
(0.00380356 0 -0.00264662)
(0.00440042 0 -0.00269991)
(0.00501202 0 -0.00272651)
(0.00563134 0 -0.00272455)
(0.00625052 0 -0.00269283)
(0.00686125 0 -0.00263123)
(0.00745524 0 -0.00254088)
(0.00802473 0 -0.00242427)
(0.00856292 0 -0.00228503)
(0.00906432 0 -0.00212763)
(0.00952494 0 -0.00195711)
(0.00994232 0 -0.00177859)
(0.0103155 0 -0.00159705)
(0.0106448 0 -0.00141698)
(0.0109318 0 -0.00124225)
(0.0111786 0 -0.00107598)
(0.0113883 0 -0.000920546)
(0.0115641 0 -0.000777559)
(0.0117096 0 -0.000647969)
(0.0118282 0 -0.000532142)
(0.0119234 0 -0.000429963)
(0.0119986 0 -0.00034094)
(0.0120566 0 -0.000264306)
(0.0121002 0 -0.000199111)
(0.0121318 0 -0.0001443)
(0.0121537 0 -9.87769e-05)
(0.0121676 0 -6.14477e-05)
(0.0121752 0 -3.12586e-05)
(0.0121778 0 -7.22e-06)
(0.0121765 0 1.1578e-05)
(0.0121722 0 2.59574e-05)
(0.0121658 0 3.66494e-05)
(0.0121578 0 4.42957e-05)
(0.0121488 0 4.9453e-05)
(0.0121392 0 5.25988e-05)
(0.0121293 0 5.41388e-05)
(0.0121193 0 5.4414e-05)
(0.0121094 0 5.37087e-05)
(0.0120998 0 5.22576e-05)
(0.0120905 0 5.02528e-05)
(0.0120817 0 4.78495e-05)
(0.0120734 0 4.51722e-05)
(0.0120657 0 4.23193e-05)
(0.0120585 0 3.93673e-05)
(0.0120518 0 3.63748e-05)
(0.0120457 0 3.33853e-05)
(0.0120401 0 3.04304e-05)
(0.0120351 0 2.75312e-05)
(0.0120306 0 2.47012e-05)
(0.0120266 0 2.19471e-05)
(0.0120231 0 1.92702e-05)
(0.0120201 0 1.66677e-05)
(0.0120175 0 1.41332e-05)
(0.0120154 0 1.16574e-05)
(0.0120138 0 9.22881e-06)
(0.0120126 0 6.83394e-06)
(0.0120118 0 4.45754e-06)
(0.0120115 0 2.08288e-06)
(0.0120116 0 -3.08173e-07)
(0.0120122 0 -2.73512e-06)
(0.0120132 0 -5.2188e-06)
(0.0120148 0 -7.78151e-06)
(0.0120168 0 -1.0447e-05)
(0.0120193 0 -1.32408e-05)
(0.0120224 0 -1.61901e-05)
(0.012026 0 -1.93242e-05)
(0.0120303 0 -2.26748e-05)
(0.0120353 0 -2.62766e-05)
(0.012041 0 -3.01673e-05)
(0.0120474 0 -3.43886e-05)
(0.0120548 0 -3.89862e-05)
(0.0120631 0 -4.40102e-05)
(0.0120724 0 -4.95163e-05)
(0.0120828 0 -5.55658e-05)
(0.0120944 0 -6.22269e-05)
(0.0121075 0 -6.95753e-05)
(0.012122 0 -7.76957e-05)
(0.0121382 0 -8.66825e-05)
(0.0121563 0 -9.66419e-05)
(0.0121764 0 -0.000107693)
(0.0121987 0 -0.000119969)
(0.0122236 0 -0.000133622)
(0.0122512 0 -0.000148822)
(0.012282 0 -0.000165764)
(0.0123162 0 -0.000184668)
(0.0123542 0 -0.000205785)
(0.0123965 0 -0.000229403)
(0.0124435 0 -0.000255851)
(0.0124958 0 -0.000285508)
(0.0125541 0 -0.000318811)
(0.0126189 0 -0.000356269)
(0.0126912 0 -0.00039847)
(0.0127717 0 -0.000446103)
(0.0128615 0 -0.000499976)
(0.0129617 0 -0.000561042)
(0.0130736 0 -0.000630427)
(0.0131987 0 -0.000709474)
(0.0133385 0 -0.00079979)
(0.0134949 0 -0.000903308)
(0.0136702 0 -0.00102237)
(0.0138667 0 -0.00115985)
(0.0140871 0 -0.00131925)
(0.0143347 0 -0.00150495)
(0.014613 0 -0.00172242)
(0.014926 0 -0.0019786)
(0.0152784 0 -0.00228239)
(0.0156751 0 -0.0026454)
(0.0161215 0 -0.00308298)
(0.0166228 0 -0.00361585)
(0.0171834 0 -0.00427231)
(0.0178049 0 -0.00509159)
(0.0184821 0 -0.00612825)
(0.0191949 0 -0.00745746)
(0.0198944 0 -0.00917915)
(0.0204778 0 -0.0114162)
(0.0207503 0 -0.0142958)
(0.0203709 0 -0.0178892)
(0.0188113 0 -0.0220547)
(0.0155198 0 -0.0261265)
(0.0105492 0 -0.0288002)
(0.00478829 0 -0.0291489)
(-0.000468934 0 -0.0269445)
(-0.00394499 0 -0.0230204)
(-0.00554268 0 -0.0188321)
(-0.00584786 0 -0.0151611)
(-0.00541613 0 -0.012211)
(-0.00462309 0 -0.0099281)
(-0.00369155 0 -0.00817638)
(-0.00274269 0 -0.00680946)
(-0.00183019 0 -0.00569745)
(-0.000978635 0 -0.00473492)
(-0.000464496 0 -0.00383532)
(0.000200138 0 -0.00158415)
(0.000422717 0 -0.00192325)
(0.000800843 0 -0.00221129)
(0.00121744 0 -0.00245798)
(0.00167244 0 -0.00267069)
(0.00216753 0 -0.00285442)
(0.00270076 0 -0.00301174)
(0.00326911 0 -0.00314298)
(0.00386885 0 -0.00324664)
(0.00449495 0 -0.00331998)
(0.00514082 0 -0.00335973)
(0.00579832 0 -0.00336292)
(0.00645808 0 -0.00332756)
(0.00711005 0 -0.00325324)
(0.00774414 0 -0.00314141)
(0.00835095 0 -0.00299539)
(0.00892232 0 -0.00282007)
(0.00945185 0 -0.00262154)
(0.00993503 0 -0.0024065)
(0.0103693 0 -0.00218178)
(0.010754 0 -0.00195388)
(0.01109 0 -0.00172858)
(0.0113794 0 -0.00151081)
(0.0116252 0 -0.00130445)
(0.0118311 0 -0.00111236)
(0.0120013 0 -0.000936429)
(0.0121398 0 -0.000777683)
(0.0122508 0 -0.000636419)
(0.0123381 0 -0.00051234)
(0.0124054 0 -0.000404699)
(0.0124559 0 -0.000312427)
(0.0124926 0 -0.000234256)
(0.012518 0 -0.000168807)
(0.0125342 0 -0.000114671)
(0.0125433 0 -7.04597e-05)
(0.0125467 0 -3.48524e-05)
(0.0125458 0 -6.61974e-06)
(0.0125416 0 1.5359e-05)
(0.012535 0 3.20882e-05)
(0.0125268 0 4.44554e-05)
(0.0125174 0 5.32348e-05)
(0.0125073 0 5.90937e-05)
(0.0124969 0 6.26018e-05)
(0.0124864 0 6.42405e-05)
(0.0124761 0 6.44129e-05)
(0.0124661 0 6.34535e-05)
(0.0124564 0 6.16373e-05)
(0.0124472 0 5.91884e-05)
(0.0124386 0 5.62875e-05)
(0.0124305 0 5.30788e-05)
(0.0124229 0 4.96758e-05)
(0.012416 0 4.61665e-05)
(0.0124096 0 4.26179e-05)
(0.0124038 0 3.90796e-05)
(0.0123985 0 3.55871e-05)
(0.0123937 0 3.21641e-05)
(0.0123895 0 2.88252e-05)
(0.0123857 0 2.55774e-05)
(0.0123824 0 2.24214e-05)
(0.0123796 0 1.93533e-05)
(0.0123773 0 1.63649e-05)
(0.0123753 0 1.34449e-05)
(0.0123738 0 1.05792e-05)
(0.0123728 0 7.75167e-06)
(0.0123721 0 4.944e-06)
(0.0123719 0 2.13622e-06)
(0.0123721 0 -6.93267e-07)
(0.0123727 0 -3.56767e-06)
(0.0123738 0 -6.51179e-06)
(0.0123753 0 -9.55212e-06)
(0.0123773 0 -1.2717e-05)
(0.0123798 0 -1.60366e-05)
(0.0123828 0 -1.95434e-05)
(0.0123864 0 -2.32725e-05)
(0.0123905 0 -2.72616e-05)
(0.0123953 0 -3.15518e-05)
(0.0124009 0 -3.61884e-05)
(0.0124071 0 -4.12205e-05)
(0.0124142 0 -4.67026e-05)
(0.0124222 0 -5.26941e-05)
(0.0124312 0 -5.92609e-05)
(0.0124413 0 -6.64758e-05)
(0.0124525 0 -7.44197e-05)
(0.0124651 0 -8.31824e-05)
(0.0124791 0 -9.28639e-05)
(0.0124947 0 -0.000103576)
(0.0125121 0 -0.000115444)
(0.0125314 0 -0.000128609)
(0.0125528 0 -0.000143227)
(0.0125767 0 -0.000159478)
(0.0126032 0 -0.000177562)
(0.0126327 0 -0.000197707)
(0.0126654 0 -0.00022017)
(0.0127017 0 -0.000245246)
(0.0127421 0 -0.000273269)
(0.0127869 0 -0.000304622)
(0.0128367 0 -0.000339745)
(0.0128921 0 -0.000379143)
(0.0129536 0 -0.000423401)
(0.013022 0 -0.000473196)
(0.0130981 0 -0.000529314)
(0.0131827 0 -0.000592676)
(0.0132768 0 -0.000664359)
(0.0133815 0 -0.000745633)
(0.0134981 0 -0.000838002)
(0.0136278 0 -0.000943254)
(0.0137723 0 -0.00106353)
(0.0139333 0 -0.00120139)
(0.0141125 0 -0.00135995)
(0.0143121 0 -0.00154301)
(0.0145342 0 -0.00175521)
(0.0147814 0 -0.0020023)
(0.0150559 0 -0.00229147)
(0.0153604 0 -0.00263177)
(0.015697 0 -0.00303472)
(0.0160672 0 -0.00351515)
(0.0164712 0 -0.0040923)
(0.0169063 0 -0.00479125)
(0.0173649 0 -0.00564474)
(0.0178301 0 -0.0066949)
(0.018269 0 -0.00799437)
(0.0186226 0 -0.00960447)
(0.0187903 0 -0.0115868)
(0.0186123 0 -0.0139811)
(0.0178549 0 -0.016759)
(0.0162235 0 -0.0197376)
(0.0134809 0 -0.0224598)
(0.00972944 0 -0.0242113)
(0.0055143 0 -0.0244662)
(0.00161804 0 -0.0231228)
(-0.00126866 0 -0.0206033)
(-0.00293066 0 -0.0177053)
(-0.00363693 0 -0.0149438)
(-0.0036917 0 -0.0125463)
(-0.00334953 0 -0.0105588)
(-0.00279259 0 -0.00893718)
(-0.00213945 0 -0.00760065)
(-0.00145739 0 -0.00645976)
(-0.000787933 0 -0.00543019)
(-0.000376276 0 -0.00443184)
(0.000194738 0 -0.0018646)
(0.000411769 0 -0.00226032)
(0.000781775 0 -0.00259845)
(0.00119212 0 -0.00289117)
(0.00164422 0 -0.00314726)
(0.00214113 0 -0.0033724)
(0.0026822 0 -0.00356904)
(0.00326541 0 -0.00373672)
(0.00388758 0 -0.00387254)
(0.0045436 0 -0.00397203)
(0.0052261 0 -0.00403007)
(0.00592547 0 -0.00404204)
(0.00663033 0 -0.0040048)
(0.00732824 0 -0.0039175)
(0.00800671 0 -0.00378195)
(0.00865416 0 -0.00360258)
(0.00926075 0 -0.00338599)
(0.00981891 0 -0.00314035)
(0.0103236 0 -0.00287454)
(0.0107723 0 -0.00259751)
(0.0111648 0 -0.00231761)
(0.0115027 0 -0.00204218)
(0.011789 0 -0.00177729)
(0.012028 0 -0.00152764)
(0.0122243 0 -0.00129656)
(0.0123829 0 -0.00108613)
(0.0125087 0 -0.000897354)
(0.0126066 0 -0.000730339)
(0.012681 0 -0.000584487)
(0.012736 0 -0.00045868)
(0.012775 0 -0.000351454)
(0.0128012 0 -0.000261133)
(0.0128173 0 -0.000185946)
(0.0128254 0 -0.000124116)
(0.0128273 0 -7.39209e-05)
(0.0128247 0 -3.37447e-05)
(0.0128187 0 -2.09975e-06)
(0.0128104 0 2.23553e-05)
(0.0128004 0 4.08115e-05)
(0.0127894 0 5.43121e-05)
(0.0127779 0 6.376e-05)
(0.0127661 0 6.99277e-05)
(0.0127545 0 7.34705e-05)
(0.0127431 0 7.49382e-05)
(0.0127322 0 7.47887e-05)
(0.0127218 0 7.33997e-05)
(0.0127119 0 7.10803e-05)
(0.0127027 0 6.80808e-05)
(0.0126941 0 6.46021e-05)
(0.0126861 0 6.08034e-05)
(0.0126787 0 5.68095e-05)
(0.012672 0 5.27166e-05)
(0.0126658 0 4.85971e-05)
(0.0126603 0 4.45043e-05)
(0.0126552 0 4.04758e-05)
(0.0126507 0 3.65361e-05)
(0.0126467 0 3.26999e-05)
(0.0126432 0 2.89731e-05)
(0.0126402 0 2.53553e-05)
(0.0126376 0 2.18405e-05)
(0.0126354 0 1.84185e-05)
(0.0126336 0 1.50754e-05)
(0.0126323 0 1.17946e-05)
(0.0126313 0 8.55679e-06)
(0.0126308 0 5.34071e-06)
(0.0126306 0 2.12311e-06)
(0.0126308 0 -1.12105e-06)
(0.0126315 0 -4.41863e-06)
(0.0126325 0 -7.79824e-06)
(0.012634 0 -1.12905e-05)
(0.0126359 0 -1.49279e-05)
(0.0126383 0 -1.87454e-05)
(0.0126412 0 -2.27805e-05)
(0.0126446 0 -2.70734e-05)
(0.0126485 0 -3.16678e-05)
(0.0126531 0 -3.66111e-05)
(0.0126584 0 -4.19551e-05)
(0.0126643 0 -4.77566e-05)
(0.012671 0 -5.40776e-05)
(0.0126786 0 -6.09868e-05)
(0.012687 0 -6.85594e-05)
(0.0126965 0 -7.68791e-05)
(0.0127071 0 -8.60383e-05)
(0.012719 0 -9.61398e-05)
(0.0127322 0 -0.000107298)
(0.0127469 0 -0.000119641)
(0.0127632 0 -0.000133311)
(0.0127813 0 -0.000148469)
(0.0128015 0 -0.000165294)
(0.0128239 0 -0.000183988)
(0.0128487 0 -0.000204779)
(0.0128763 0 -0.000227924)
(0.0129068 0 -0.000253715)
(0.0129408 0 -0.000282483)
(0.0129784 0 -0.000314604)
(0.0130201 0 -0.000350507)
(0.0130664 0 -0.000390682)
(0.0131178 0 -0.000435693)
(0.0131747 0 -0.000486187)
(0.0132378 0 -0.000542911)
(0.0133078 0 -0.000606729)
(0.0133854 0 -0.000678648)
(0.0134714 0 -0.00075984)
(0.0135667 0 -0.000851675)
(0.0136723 0 -0.000955769)
(0.0137892 0 -0.00107402)
(0.0139187 0 -0.0012087)
(0.0140619 0 -0.00136249)
(0.01422 0 -0.00153861)
(0.0143945 0 -0.00174094)
(0.0145867 0 -0.00197418)
(0.0147976 0 -0.00224405)
(0.0150284 0 -0.00255756)
(0.0152796 0 -0.00292335)
(0.0155509 0 -0.00335211)
(0.0158407 0 -0.00385717)