/*--------------------------------*- C++ -*----------------------------------*\
  =========                 |
  \\      /  F ield         | OpenFOAM: The Open Source CFD Toolbox
   \\    /   O peration     | Website:  https://openfoam.org
    \\  /    A nd           | Version:  13
     \\/     M anipulation  |
\*---------------------------------------------------------------------------*/
FoamFile
{
    format      ascii;
    class       volScalarField;
    location    "29.831886";
    object      T;
}
// * * * * * * * * * * * * * * * * * * * * * * * * * * * * * * * * * * * * * //

dimensions      [0 0 0 1 0 0 0];

internalField   nonuniform List<scalar> 
5712
(
601.888
601.457
600.741
600.082
599.043
598.376
596.714
596.175
597.209
596.573
599.039
598.396
600.386
599.778
601.407
600.945
598.491
597.621
597.356
596.162
595.659
594.548
594.617
593.214
603.358
605.801
602.899
605.185
602.271
604.608
601.559
603.769
599.808
601.116
598.597
600.251
603.143
601.751
595.96
593.895
594.796
593.264
593.383
591.644
592.01
590.699
598.403
596.25
597.14
595.517
600.369
598.278
608.612
610.319
607.454
609.231
607.404
609.542
606.04
608.01
605.646
608.527
603.529
606.205
601.899
604.543
600.037
602.721
597.81
597.421
596.009
595.816
594.05
593.559
592.622
592.133
599.299
599.782
601.421
601.494
594.494
594.494
593.129
593.401
591.339
590.94
590.138
589.927
597.571
598.371
596.045
597.234
602.551
605.771
603.758
607.383
604.842
608.147
605.553
609.325
600.668
603.794
602.289
605.839
599.008
602.083
601.137
604.627
612.634
616.345
613.252
616.931
611.505
614.96
612.632
616.141
609.608
612.258
611.581
614.466
600.37
595.912
604.438
607.516
610.905
596.559
601.278
606.143
609.431
613.091
595.368
599.56
603.644
607.547
611.424
619.785
621.49
621.657
623.164
618.037
619.994
620.472
622.099
614.999
617.191
618.443
620.382
597.616
599.359
602.781
605.169
607.568
610.056
611.401
613.867
616.549
619.029
596.141
597.539
600.848
603.316
605.29
608.12
609.754
612.826
615.454
618.709
598.623
601.4
596.647
599.109
594.006
594.815
592.246
592.708
601.356
604.645
603.293
606.79
594.979
597.446
593.908
596.265
590.838
591.28
589.833
590.172
599.601
602.949
598.515
601.786
606.768
610.776
613.549
618.436
608.335
612.545
614.596
619.395
605.329
609.208
612.548
617.355
603.975
607.89
611.113
615.661
622.051
622.865
624.369
622.364
622.737
624.116
620.924
621.917
623.505
621.511
621.957
623.438
618.607
619.891
621.653
620.222
620.871
622.528
601.514
603.999
606.685
607.734
609.935
612.34
612.444
614.364
616.51
615.824
617.452
619.518
619.217
620.103
622.039
599.531
602.313
605.347
606.641
609.579
612.622
611.514
614.133
616.89
615.482
617.48
619.944
619.208
620.346
622.577
590.662
589.769
589.886
588.742
592.911
591.806
592.015
590.654
590.281
588.521
590.063
588.43
589.746
588.181
589.366
587.905
588.116
588.856
587.622
588.496
587.829
587.222
587.868
586.854
589.59
588.459
587.612
586.639
586.912
585.995
586.862
585.913
586.749
585.205
587.05
585.611
586.504
584.921
586.582
585.131
586.26
584.542
585.848
584.296
585.534
584.185
584.731
583.641
588.602
587.829
587.598
586.737
590.952
590.278
589.772
589.044
586.097
585.078
586.974
586.032
586.625
585.801
585.662
584.981
588.664
587.992
587.597
587.074
585.244
584.254
584.366
583.529
584.848
583.531
584.006
583.253
585.55
584.122
584.837
583.946
584.156
583.007
583.284
582.659
583.395
582.447
582.653
582.148
586.835
587.616
585.371
586.176
586.793
587.619
585.251
586.087
586.726
587.469
585.058
585.807
589.352
592.149
587.616
586.251
584.82
592.738
589.967
588.354
587.009
585.481
591.599
588.874
586.936
585.648
584.635
588.959
590.81
587.53
589.321
588.836
590.602
587.302
589.02
588.531
590.2
586.866
588.463
593.51
594.949
590.564
592.023
588.903
590.395
587.635
589.15
586.195
587.699
592.07
592.908
589.274
590.117
587.391
588.394
586.199
587.425
585.319
586.833
587.655
587.955
586.538
586.534
590.187
590.408
588.846
588.674
585.074
585.452
586.034
586.665
585.687
585.452
584.879
584.568
587.813
587.42
586.902
586.416
584.309
584.485
583.589
583.697
584.196
584.981
583.846
585.069
585.07
586.077
584.524
585.915
583.489
584.085
583.266
584.334
582.897
583.422
582.747
583.68
593.335
595.866
598.282
592.415
595.269
597.69
592.973
595.535
598.005
591.984
594.855
597.381
592.425
594.936
597.444
591.286
594.291
596.985
596.903
599.359
602.048
594.009
596.54
599.271
592.408
595.041
597.81
591.277
593.897
596.572
590.53
593.688
596.621
594.463
597.121
600.16
591.738
594.433
597.47
590.239
593.083
596.201
589.588
592.575
595.717
589.788
593.095
596.32
584.633
585.804
588.732
594.083
585.112
586.362
589.391
594.795
584.428
585.642
588.581
593.983
584.738
586.066
589.122
594.542
584.155
585.435
588.254
593.495
584.048
585.473
588.476
593.831
584.144
585.719
588.935
594.424
583.854
585.602
588.946
594.471
583.524
585.037
587.973
593.276
583.611
585.231
587.925
592.698
583.967
585.336
587.996
592.92
584.108
585.578
588.086
592.585
583.169
584.824
587.986
593.482
583.182
584.933
587.781
592.664
582.806
584.601
587.87
593.337
582.81
584.675
587.604
592.466
584.712
585.763
588.431
593.467
585.373
586.278
588.565
592.969
584.653
585.737
588.37
593.375
585.343
586.288
588.563
592.927
584.568
585.718
588.268
593.129
585.202
586.239
588.52
592.832
584.542
585.778
588.206
592.783
585.068
586.206
588.461
592.654
584.605
585.936
588.258
592.452
586.399
587.177
589.246
592.399
587.559
588.257
590.377
593.344
586.27
587.107
589.192
592.34
587.423
588.191
590.338
593.317
586.035
586.985
589.12
592.29
587.187
588.08
590.28
593.266
585.696
586.801
588.982
592.167
586.868
587.917
590.184
593.195
585.259
586.558
588.815
592.032
586.494
587.732
590.082
593.125
584.433
586.094
588.594
591.931
585.543
587.187
589.742
592.894
584.837
586.328
588.71
591.99
586.015
587.461
589.913
593.005
584.072
585.879
588.488
591.883
585.113
586.932
589.588
592.772
583.728
585.657
588.339
591.761
584.723
586.686
589.427
592.644
602.279
608.942
614.673
619.392
623.088
602.7
609.294
615.012
619.729
623.424
602.232
608.918
614.657
619.38
623.078
602.629
609.246
614.974
619.696
623.393
602.141
608.877
614.631
619.359
623.059
602.327
608.982
614.725
619.453
623.153
602.499
609.164
614.915
619.649
623.352
602.404
609.094
614.862
619.606
623.312
602.085
608.845
614.61
619.344
623.047
602.435
609.354
615.145
619.884
623.586
602.161
608.967
614.735
619.467
623.168
602.542
609.469
615.257
619.992
623.692
602.082
608.847
614.621
619.361
623.065
602.476
609.41
615.209
619.953
623.657
601.984
608.781
614.571
619.32
623.028
602.456
609.42
615.235
619.986
623.693
602.328
609.103
614.852
619.573
623.268
602.831
609.713
615.473
620.194
623.888
602.319
609.115
614.87
619.594
623.291
602.819
609.714
615.479
620.202
623.897
602.331
609.169
614.935
619.663
623.361
602.826
609.744
615.516
620.242
623.938
602.482
609.39
615.17
619.902
623.602
602.913
609.852
615.631
620.361
624.06
602.785
609.72
615.505
620.238
623.936
629.708
630.812
629.223
630.35
628.339
629.589
627.22
628.681
626.111
627.796
624.372
626.317
625.262
627.163
623.495
625.37
622.583
624.291
641.815
655.335
666.962
676.267
682.889
641.633
655.249
667.011
676.378
683.111
641.595
655.218
666.888
676.212
682.841
641.436
655.166
666.938
676.361
683.078
641.152
654.968
666.723
676.088
682.733
641.009
654.925
666.78
676.242
682.975
640.556
654.61
666.481
675.905
682.577
640.464
654.599
666.56
676.076
682.834
639.865
654.159
666.166
675.666
682.371
639.877
654.215
666.29
675.87
682.654
638.37
653.042
665.32
674.988
681.761
638.532
653.217
665.537
675.257
682.089
639.119
653.616
665.764
675.351
682.092
639.241
653.758
665.956
675.605
682.413
637.619
652.453
664.855
674.603
681.411
637.731
652.588
665.036
674.839
681.704
636.852
651.843
664.37
674.201
681.049
636.855
651.915
664.487
674.382
681.306
588.034
589.618
591.041
589.225
591.725
591.465
591.371
591.019
591.884
591.407
594.032
593.475
595.195
594.56
593.579
593.047
592.96
592.591
592.854
592.567
589.269
588.88
593.818
595.805
596.451
596.634
594.807
593.779
596.054
593.423
598.049
601.065
593.989
594.805
597.133
594.629
595.646
595.856
591.911
591.783
593.061
592.63
592.037
591.574
592.142
592.865
595.448
594.962
593.994
593.517
590.038
589.456
590.497
590.034
590.775
590.924
592.304
594.029
592.259
586.334
584.857
584.252
584.37
585.231
586.696
585.462
584.941
585.186
586.285
592.316
591.624
591.566
592.18
593.497
594.351
593.715
593.713
594.372
595.713
594.976
594.313
594.284
594.919
596.247
595.18
594.545
594.544
595.202
596.543
593.319
592.643
592.6
593.225
594.548
590.554
588.63
587.64
587.473
588.104
592.609
590.525
589.47
589.295
590.022
591.121
589.665
588.912
588.993
590.011
594.849
592.838
591.86
591.776
592.666
597.925
595.852
594.855
594.762
595.658
592.154
591.101
590.698
591.045
592.218
592.674
591.35
590.712
590.886
591.965
595.058
593.777
593.176
593.379
594.474
592.914
591.982
591.689
592.119
593.335
593.824
592.783
592.389
592.745
593.922
594.17
593.266
592.998
593.447
594.674
588.965
587.331
586.527
586.487
587.237
589.75
588.528
587.973
588.194
589.29
591.32
590.362
590.044
590.454
591.659
590.967
590.093
589.855
590.326
591.565
590.247
589.244
588.885
589.262
590.448
589.882
588.981
588.717
589.167
590.395
590.56
589.778
589.632
590.175
591.454
591.292
590.517
590.376
590.923
592.203
593.883
593.115
592.979
593.53
594.812
593.44
592.724
592.64
593.231
594.536
592.358
591.51
591.297
591.788
593.037
591.931
591.141
590.984
591.519
592.792
587.186
585.668
585.006
585.078
585.891
587.403
586.233
585.751
586.027
587.149
588.128
586.772
586.129
586.246
587.177
588.199
587.175
586.802
587.166
588.343
589.036
588.092
587.789
588.208
589.417
588.935
587.763
587.246
587.494
588.603
590.707
589.909
589.745
590.275
591.546
592.504
591.784
591.697
592.287
593.591
590.619
589.771
589.559
590.051
591.3
588.958
589.867
589.027
590.032
586.837
587.885
586.8
587.73
589.104
589.219
590.065
589.861
586.862
586.914
587.821
587.528
591.213
593.437
592.032
594.171
591.221
593.235
592.181
594.159
592.209
591.364
591.728
591.175
592.928
593.781
591.247
592.248
590.779
591.882
589.073
590.125
588.432
589.457
593.356
594.435
592.688
593.931
594.977
596.287
595.494
597.298
596.133
597.852
595.342
597.485
596.166
598.067
594.967
597.869
595.522
598.101
596.629
599.273
598.142
600.845
589.915
590.49
590.361
591.017
587.115
587.306
587.591
587.759
593.039
594.69
592.638
594.138
591.084
591.657
592.017
592.455
588.291
588.343
589.148
589.058
593.777
595.361
594.798
596.233
595.846
599.059
598.533
602.183
595.579
599.041
598.06
601.905
596.561
599.638
599.189
602.737
597.65
600.689
600.104
603.592
595.639
596.69
597.646
599.308
595.472
596.335
597.939
599.535
595.163
595.629
598.467
599.787
589.809
586.917
592.661
595.746
599.718
586.826
589.574
592.424
595.673
600.41
587.07
590.184
593.797
597.781
601.941
598.41
599.195
603.707
605.273
597.608
598.396
603.388
604.952
596.419
597.071
603
604.577
586.893
587.319
589.828
590.341
592.918
593.441
596.676
597.348
603.501
605.192
587.09
587.534
590.521
591.567
594.457
595.793
599.062
600.672
605.345
607.405
591.335
593.143
591.807
593.66
587.422
587.613
587.822
587.911
596.261
598.931
595.676
598.204
592.209
594.335
592.999
595.269
588.299
588.504
588.997
589.275
596.675
599.671
597.557
600.737
601.641
605.118
608.569
612.998
600.744
604.112
607.32
611.458
602.324
605.927
609.625
614.196
602.96
606.807
610.182
614.674
599.508
600.202
604.277
604.398
598.733
599.501
604.076
604.133
597.59
598.693
603.877
603.995
588.196
589.746
591.296
592.765
594.284
595.565
598.04
599.255
604.257
604.297
588.418
590.091
593.005
594.56
597.072
598.256
601.21
601.773
605.528
605.266
583.365
583.298
584.293
583.893
584.91
584.846
585.887
585.469
582.303
581.553
583.184
582.403
582.325
581.626
583.279
582.524
583.114
582.306
582.981
582.382
581.781
582.55
584.751
585.771
586.318
587.318
584.238
585.394
583.864
584.897
583.64
584.698
581.12
580.881
581.947
581.662
581.12
580.81
581.99
581.603
581.16
580.72
581.811
581.272
582.788
582.141
583.726
582.896
583.026
582.969
583.453
583.267
584.785
584.758
585.242
585.136
582.277
582.025
581.889
581.788
584.079
583.715
584.826
584.28
585.903
585.655
586.697
586.29
582.869
582.41
583.575
582.909
581.457
580.943
581.34
581.102
581.108
580.718
581.149
580.975
582.016
581.366
581.668
581.35
582.676
581.888
582.108
581.706
580.759
580.898
580.576
580.807
580.821
580.973
580.583
580.836
580.966
581.093
580.628
580.856
582.868
584.596
581.757
581.038
580.747
584.613
582.956
581.867
581.154
580.907
584.566
582.85
581.718
581.112
580.984
581.481
582.503
581.502
582.597
581.47
582.425
581.446
582.496
581.471
582.322
581.362
582.324
584.629
585.042
582.974
583.48
581.983
582.611
581.383
582.113
581.297
582.171
584.473
584.651
582.789
583.036
581.757
582.19
581.275
581.93
581.319
582.193
582.735
582.687
583.081
582.852
584.496
584.295
584.915
584.492
582.015
582.14
581.734
582.003
583.633
583.267
584.197
583.854
585.515
584.958
586.143
585.615
582.477
582.509
582.98
583.049
581.526
582.028
581.644
582.502
581.314
581.934
581.441
582.355
581.873
582.326
581.94
582.808
582.338
582.823
582.307
583.188
583.757
584.939
584.195
585.587
583.592
584.861
584.067
585.539
583.438
584.839
583.869
585.575
585.91
587.463
584.432
586.014
583.612
585.202
583.213
584.847
583.724
585.732
585.365
587.15
583.87
585.73
583.226
585.167
583.207
585.23
583.908
586.184
581.662
583.814
587.38
593.169
582.382
584.529
588.138
593.943
581.612
583.754
587.307
593.138
582.3
584.425
588.003
593.787
581.572
583.699
587.078
592.721
582
584.091
587.523
593.185
582.768
584.789
588.292
593.985
583.354
585.264
588.711
594.308
581.755
583.838
587.136
592.691
582.105
584.205
587.193
592.153
581.65
583.773
586.918
592.188
582.039
584.178
587.113
591.898
582.042
584.058
587.444
593.091
582.259
584.301
587.32
592.304
582.417
584.336
587.682
593.201
582.497
584.461
587.447
592.341
581.427
583.576
586.947
592.458
581.754
583.896
586.949
591.847
581.469
583.615
586.936
592.413
581.823
583.967
586.993
591.846
581.576
583.719
586.919
592.235
581.91
584.058
587.048
591.829
581.79
583.935
586.955
591.951
582.031
584.186
587.1
591.737
582.091
584.248
587.102
591.657
582.525
584.664
587.549
591.113
583.54
585.683
588.623
591.962
582.521
584.665
587.541
591.091
583.539
585.691
588.63
591.97
582.533
584.689
587.57
591.125
583.555
585.723
588.666
591.991
582.552
584.722
587.574
591.117
583.574
585.763
588.7
592.019
582.596
584.781
587.591
591.105
583.62
585.835
588.764
592.073
582.9
585.056
587.852
591.332
583.822
586.031
588.924
592.232
582.719
584.903
587.713
591.214
583.681
585.906
588.821
592.126
583.139
585.244
588.028
591.499
584.066
586.225
589.085
592.363
583.416
585.444
588.184
591.631
584.377
586.452
589.26
592.508
601.733
608.605
614.461
619.249
622.976
602.179
608.969
614.807
619.591
623.316
601.734
608.611
614.464
619.25
622.975
602.173
608.962
614.795
619.575
623.299
601.702
608.607
614.461
619.244
622.968
601.948
608.747
614.577
619.353
623.075
602.235
609
614.812
619.58
623.297
602.304
609.031
614.822
619.579
623.292
601.743
608.635
614.478
619.255
622.976
602.133
609.17
615.03
619.806
623.525
601.759
608.722
614.581
619.364
623.086
602.181
609.251
615.12
619.9
623.62
601.845
608.702
614.529
619.298
623.016
602.269
609.284
615.13
619.9
623.615
601.901
608.73
614.539
619.299
623.011
602.384
609.376
615.207
619.968
623.679
601.756
608.755
614.633
619.425
623.153
602.239
609.356
615.25
620.044
623.77
601.781
608.788
614.665
619.456
623.182
602.254
609.374
615.266
620.059
623.785
601.847
608.875
614.751
619.539
623.263
602.31
609.434
615.322
620.111
623.836
602.05
609.129
615.006
619.792
623.516
602.458
609.578
615.46
620.246
623.969
602.386
609.48
615.355
620.137
623.857
615.051
616.307
615.223
616.508
615.617
616.937
616.244
617.54
617.252
618.377
619.821
621.286
618.672
619.945
620.808
622.42
621.699
623.333
631.01
647.523
661.077
671.55
678.736
630.66
647.345
661.076
671.63
678.942
631.17
647.638
661.16
671.614
678.79
630.869
647.509
661.166
671.74
679.016
631.494
647.865
661.323
671.741
678.898
631.185
647.726
661.321
671.858
679.117
631.999
648.216
661.578
671.94
679.072
631.651
648.045
661.551
672.038
679.274
632.719
648.707
661.94
672.231
679.327
632.252
648.45
661.847
672.274
679.482
634.441
649.921
662.85
672.958
679.956
634.139
649.746
662.802
673.019
680.107
633.568
649.282
662.366
672.572
679.625
633.117
649.018
662.263
672.6
679.758
635.267
650.564
663.35
673.361
680.305
635.11
650.486
663.366
673.465
680.485
636.074
651.215
663.867
673.786
680.679
636.001
651.224
663.934
673.926
680.899
586.72
588.214
587.104
585.546
583.408
584.309
583.389
584.413
584.933
585.998
584.932
585.851
603.211
602.915
602.188
601.04
599.496
597.64
603.339
603.056
602.364
601.287
599.876
598.222
603.958
605.081
603.623
604.699
602.807
603.774
601.503
602.27
599.761
600.348
597.74
598.369
595.653
593.776
592.169
590.851
589.87
589.165
596.462
594.758
593.232
591.955
590.971
590.29
601.837
601.296
601.391
602.126
603.506
601.538
600.994
601.086
601.819
603.197
600.806
600.256
600.342
601.071
602.447
599.65
599.09
599.166
599.887
601.259
598.092
597.516
597.577
598.284
599.651
596.215
595.615
595.65
596.337
597.693
601.964
601.42
601.514
602.248
603.626
601.678
601.131
601.222
601.953
603.33
600.981
600.428
600.512
601.238
602.612
599.895
599.332
599.405
600.122
601.493
598.47
597.89
597.947
598.651
600.016
596.795
596.191
596.223
596.908
598.262
602.585
602.045
602.142
602.877
604.257
603.71
603.17
603.267
604.003
605.382
602.248
601.705
601.798
602.532
603.91
603.325
602.782
602.876
603.61
604.987
601.427
600.878
600.966
601.695
603.071
602.395
601.846
601.934
602.662
604.038
600.114
599.555
599.632
600.353
601.726
600.881
600.321
600.397
601.116
602.487
598.358
597.782
597.842
598.55
599.916
598.943
598.364
598.42
599.125
600.489
596.315
595.714
595.748
596.435
597.791
596.94
596.334
596.363
597.045
598.398
594.196
593.558
593.555
594.212
595.552
592.272
591.58
591.523
592.137
593.454
590.598
589.831
589.698
590.253
591.539
589.183
588.316
588.09
588.571
589.817
588.088
587.12
586.808
587.223
588.43
587.307
586.283
585.927
586.308
587.496
595.005
594.368
594.365
595.022
596.362
593.262
592.578
592.528
593.148
594.469
591.684
590.941
590.834
591.408
592.704
590.345
589.537
589.366
589.891
591.16
589.302
588.434
588.209
588.693
589.939
588.586
587.687
587.436
587.899
589.135
603.074
602.502
601.499
600.073
598.247
596.101
603.202
602.646
601.681
600.335
598.661
596.763
603.815
604.931
603.193
604.247
602.089
603.018
600.491
601.2
598.452
598.969
596.098
596.601
593.845
591.787
590.15
589.059
588.615
588.71
594.808
593.005
591.529
590.503
589.984
589.939
601.7
601.159
601.255
601.991
603.371
601.127
600.584
600.679
601.414
602.794
600.121
599.574
599.665
600.398
601.777
598.688
598.135
598.22
598.947
600.324
596.852
596.287
596.36
597.079
598.452
594.69
594.107
594.162
594.867
596.233
601.827
601.285
601.379
602.114
603.493
601.269
600.725
600.818
601.552
602.931
600.301
599.753
599.842
600.572
601.95
598.948
598.392
598.473
599.198
600.573
597.263
596.695
596.764
597.48
598.851
595.349
594.762
594.813
595.513
596.877
602.443
601.903
602
602.737
604.117
603.56
603.021
603.119
603.855
605.235
601.82
601.279
601.374
602.11
603.49
602.875
602.334
602.431
603.166
604.545
600.712
600.167
600.259
600.992
602.371
601.642
601.097
601.189
601.922
603.3
599.107
598.555
598.641
599.369
600.746
599.816
599.264
599.349
600.076
601.452
597.058
596.494
596.568
597.288
598.661
597.574
597.009
597.081
597.799
599.171
594.688
594.107
594.163
594.87
596.237
595.19
594.608
594.662
595.367
596.733
592.409
591.798
591.824
592.506
593.862
590.314
589.66
589.643
590.292
591.629
588.619
587.901
587.821
588.42
589.732
587.437
586.625
586.457
586.987
588.26
586.872
585.951
585.687
586.142
587.372
586.868
585.863
585.526
585.924
587.12
593.37
592.755
592.778
593.457
594.81
591.533
590.879
590.863
591.511
592.848
590.009
589.303
589.234
589.841
591.155
588.922
588.15
588.017
588.575
589.863
588.337
587.498
587.302
587.811
589.071
588.244
587.356
587.115
587.589
588.83
588.474
588.262
591.531
593.842
593.995
594.53
592.41
587.156
587.818
587.487
589.371
589.191
588.852
590.347
590.634
591.52
587.015
587.238
588.917
589.082
588.079
588.362
589.624
589.938
592.028
592.032
590.283
590.274
587.71
587.756
587.01
587.661
587.914
587.203
589.462
591.317
589.045
585.592
584.187
583.634
583.795
584.698
586.108
584.91
584.423
584.696
585.812
590.066
589.422
589.416
590.072
591.414
592.411
591.806
591.839
592.526
593.885
592.557
591.942
591.963
592.641
593.994
593.104
592.503
592.54
593.23
594.59
590.961
590.334
590.344
591.013
592.362
584.62
583.356
582.872
583.099
584.004
585.356
584.145
583.717
583.998
584.98
585.606
584.583
584.231
584.617
585.806
587.155
586.07
585.733
586.1
587.233
587.582
586.786
586.633
587.176
588.457
587.115
586.21
585.961
586.43
587.668
588.799
588.062
587.964
588.548
589.852
589.057
588.288
588.16
588.722
590.012
589.992
589.276
589.197
589.796
591.108
584.52
583.281
582.816
583.057
583.994
585.449
584.493
584.198
584.626
585.841
587.336
586.565
586.436
586.996
588.286
587.531
586.792
586.692
587.275
588.578
586.445
585.626
585.451
585.976
587.246
586.771
585.992
585.853
586.407
587.693
588.098
587.387
587.315
587.919
589.234
588.433
587.745
587.693
588.314
589.637
590.544
589.878
589.847
590.484
591.816
590.568
589.923
589.915
590.57
591.911
588.762
588.055
587.985
588.591
589.906
588.772
588.085
588.035
588.657
589.981
585.012
583.697
583.186
583.387
584.316
585.779
584.698
584.303
584.651
585.817
584.857
583.733
583.304
583.6
584.645
585.913
584.991
584.722
585.172
586.399
586.268
585.435
585.248
585.762
587.026
585.395
584.424
584.109
584.52
585.725
587.936
587.225
587.151
587.755
589.069
589.846
589.194
589.179
589.829
591.167
587.498
586.763
586.667
587.253
588.558
589.842
588.572
588.048
588.223
589.044
590.676
588.661
588.764
586.5
586.456
588.87
589.064
586.57
586.678
591.011
593.483
591.031
593.254
591.261
591.144
592.85
588.597
588.713
586.413
586.354
588.833
589.029
586.504
586.652
591.14
593.755
591.154
593.463
591.375
591.198
593.032
588.631
588.759
586.396
586.32
588.892
589.1
586.512
586.671
591.266
594.439
591.284
594.056
591.509
591.322
593.533
589.094
589.221
586.807
586.724
589.368
589.616
586.931
587.118
591.903
595.263
591.895
594.852
592.092
591.877
594.226
589.915
590.037
587.634
587.55
590.184
590.478
587.757
587.943
592.745
595.893
592.723
595.566
592.886
592.73
594.956
591.39
591.503
589.147
589.066
591.622
591.87
589.266
589.433
594.068
596.972
594.021
596.665
594.155
593.986
596.048
583.06
583.046
584.581
584.575
583.082
583.113
584.617
584.675
581.974
581.166
582.025
581.288
582.041
582.181
581.534
582.95
582.957
584.484
584.46
583.023
583.091
584.548
584.62
581.818
581.16
581.901
581.314
581.98
582.171
581.578
582.903
582.937
584.451
584.406
583.042
583.145
584.548
584.662
581.894
581.48
582.001
581.619
582.138
582.338
581.865
583.308
583.36
584.853
584.795
583.491
583.636
584.967
585.087
582.402
582.217
582.527
582.347
582.717
582.958
582.58
584.167
584.228
585.694
585.631
584.392
584.591
585.811
585.946
583.355
583.3
583.493
583.403
583.707
583.976
583.598
585.741
585.805
587.238
587.175
585.969
586.143
587.356
587.485
584.941
584.723
585.072
584.837
585.251
585.48
585.037
601.965
601.558
600.758
600.098
599.055
598.388
596.723
596.183
597.218
596.582
599.053
598.409
600.404
599.795
601.502
601.063
598.5
597.627
597.364
596.167
595.666
594.552
594.623
593.218
603.417
605.844
602.98
605.25
602.284
604.618
601.569
603.777
599.815
601.125
598.603
600.257
603.151
601.758
595.965
593.898
594.8
593.267
593.387
591.647
592.014
590.701
598.408
596.254
597.144
595.52
600.373
598.281
608.652
610.357
607.513
609.289
607.411
609.548
606.045
608.014
605.651
608.532
603.534
606.209
601.903
604.547
600.04
602.723
597.814
597.424
596.013
595.819
594.054
593.562
592.625
592.135
599.303
599.785
601.425
601.497
594.497
594.496
593.131
593.403
591.341
590.942
590.141
589.928
597.574
598.373
596.047
597.236
602.554
605.775
603.761
607.386
604.846
608.151
605.556
609.328
600.671
603.797
602.292
605.841
599.01
602.086
601.139
604.629
612.682
616.397
613.285
616.964
611.509
614.962
612.637
616.145
609.612
612.261
611.585
614.469
600.373
595.914
604.441
607.519
610.908
596.561
601.281
606.145
609.434
613.093
595.37
599.563
603.647
607.549
611.426
619.84
621.544
621.689
623.192
618.037
619.992
620.473
622.099
615.001
617.191
618.445
620.383
597.619
599.361
602.783
605.171
607.57
610.058
611.403
613.868
616.551
619.03
596.143
597.541
600.85
603.319
605.293
608.122
609.756
612.828
615.457
618.711
598.626
601.403
596.649
599.111
594.008
594.817
592.248
592.71
601.358
604.648
603.296
606.792
594.981
597.448
593.91
596.267
590.84
591.282
589.835
590.173
599.604
602.951
598.517
601.788
606.771
610.778
613.551
618.439
608.338
612.547
614.599
619.398
605.332
609.21
612.55
617.357
603.977
607.892
611.115
615.663
622.098
622.908
624.408
622.394
622.764
624.141
620.923
621.917
623.506
621.513
621.959
623.441
618.608
619.892
621.655
620.223
620.873
622.53
601.516
604.001
606.686
607.736
609.937
612.342
612.446
614.365
616.512
615.826
617.453
619.52
619.219
620.105
622.041
599.532
602.315
605.349
606.643
609.581
612.624
611.516
614.135
616.892
615.483
617.481
619.945
619.21
620.348
622.579
590.665
589.771
589.888
588.745
592.916
591.809
592.019
590.657
590.31
588.552
590.106
588.473
589.747
588.182
589.366
587.905
588.117
588.858
587.624
588.498
587.831
587.223
587.87
586.856
589.593
588.461
587.613
586.641
586.913
585.996
586.863
585.914
586.774
585.222
587.088
585.641
586.506
584.922
586.582
585.131
586.261
584.543
585.849
584.296
585.535
584.186
584.732
583.641
588.604
587.831
587.6
586.739
590.955
590.28
589.774
589.046
586.098
585.079
586.975
586.034
586.627
585.803
585.664
584.983
588.666
587.994
587.599
587.076
585.245
584.255
584.367
583.53
584.849
583.532
584.008
583.254
585.552
584.123
584.838
583.947
584.157
583.008
583.285
582.66
583.395
582.448
582.654
582.149
586.85
587.625
585.379
586.18
586.794
587.619
585.253
586.088
586.728
587.47
585.059
585.808
589.353
592.152
587.617
586.252
584.821
592.741
589.969
588.355
587.01
585.482
591.601
588.876
586.938
585.649
584.636
588.966
590.82
587.531
589.325
588.836
590.602
587.303
589.021
588.532
590.2
586.866
588.464
593.512
594.951
590.565
592.024
588.904
590.396
587.636
589.151
586.196
587.7
592.072
592.91
589.276
590.119
587.393
588.395
586.2
587.426
585.32
586.834
587.657
587.957
586.54
586.535
590.189
590.41
588.848
588.676
585.075
585.453
586.035
586.667
585.689
585.454
584.881
584.57
587.814
587.421
586.904
586.417
584.311
584.486
583.59
583.698
584.198
584.982
583.847
585.07
585.071
586.078
584.525
585.916
583.49
584.086
583.267
584.335
582.898
583.423
582.748
583.68
593.348
595.881
598.297
592.418
595.276
597.698
592.973
595.534
598.005
591.986
594.857
597.382
592.425
594.937
597.444
591.288
594.292
596.986
596.905
599.361
602.049
594.01
596.542
599.273
592.409
595.042
597.811
591.278
593.898
596.573
590.532
593.689
596.622
594.465
597.123
600.162
591.74
594.434
597.471
590.24
593.085
596.202
589.589
592.576
595.718
589.79
593.097
596.322
584.645
585.813
588.742
594.096
585.135
586.382
589.411
594.816
584.429
585.642
588.581
593.982
584.738
586.065
589.121
594.54
584.155
585.436
588.254
593.494
584.049
585.473
588.476
593.829
584.144
585.719
588.934
594.423
583.854
585.602
588.945
594.47
583.525
585.038
587.973
593.275
583.612
585.232
587.925
592.698
583.968
585.337
587.996
592.919
584.108
585.578
588.086
592.585
583.169
584.825
587.985
593.482
583.183
584.933
587.781
592.663
582.807
584.601
587.87
593.336
582.81
584.675
587.604
592.465
584.716
585.766
588.436
593.476
585.373
586.276
588.564
592.972
584.654
585.738
588.371
593.375
585.344
586.289
588.564
592.927
584.569
585.718
588.269
593.129
585.203
586.239
588.52
592.832
584.543
585.779
588.206
592.783
585.069
586.206
588.461
592.654
584.605
585.937
588.258
592.452
586.396
587.171
589.242
592.399
587.555
588.25
590.37
593.338
586.271
587.107
589.193
592.34
587.424
588.192
590.339
593.318
586.036
586.986
589.121
592.29
587.188
588.08
590.281
593.267
585.697
586.801
588.983
592.166
586.868
587.918
590.185
593.195
585.26
586.559
588.816
592.032
586.495
587.732
590.083
593.125
584.434
586.095
588.594
591.931
585.544
587.188
589.742
592.893
584.838
586.328
588.711
591.99
586.016
587.462
589.913
593.005
584.073
585.879
588.488
591.883
585.114
586.933
589.588
592.772
583.729
585.657
588.339
591.761
584.723
586.687
589.427
592.644
602.283
608.943
614.674
619.393
623.089
602.713
609.304
615.021
619.738
623.433
602.232
608.917
614.656
619.379
623.077
602.626
609.243
614.971
619.693
623.391
602.141
608.876
614.63
619.358
623.058
602.325
608.981
614.723
619.451
623.152
602.498
609.162
614.914
619.648
623.351
602.403
609.093
614.861
619.604
623.311
602.084
608.844
614.609
619.343
623.045
602.435
609.353
615.144
619.883
623.585
602.16
608.966
614.734
619.466
623.166
602.542
609.468
615.256
619.991
623.691
602.081
608.846
614.62
619.359
623.064
602.475
609.409
615.209
619.953
623.656
601.983
608.78
614.57
619.319
623.027
602.455
609.419
615.234
619.985
623.692
602.327
609.099
614.847
619.568
623.263
602.825
609.705
615.465
620.186
623.88
602.32
609.116
614.871
619.594
623.291
602.82
609.715
615.479
620.202
623.898
602.331
609.169
614.934
619.662
623.36
602.826
609.743
615.515
620.242
623.938
602.482
609.39
615.169
619.901
623.601
602.913
609.851
615.631
620.36
624.059
602.784
609.72
615.504
620.237
623.936
629.734
630.832
629.223
630.352
628.34
629.59
627.222
628.682
626.113
627.797
624.374
626.319
625.264
627.165
623.497
625.373
622.585
624.293
641.829
655.343
666.969
676.272
682.894
641.64
655.251
667.011
676.378
683.11
641.596
655.219
666.888
676.212
682.841
641.438
655.168
666.939
676.362
683.079
641.154
654.969
666.723
676.088
682.734
641.01
654.927
666.781
676.243
682.976
640.558
654.612
666.482
675.906
682.577
640.465
654.6
666.561
676.077
682.835
639.866
654.16
666.167
675.667
682.372
639.878
654.216
666.291
675.87
682.655
638.372
653.044
665.322
674.99
681.763
638.534