/*--------------------------------*- C++ -*----------------------------------*\
  =========                 |
  \\      /  F ield         | OpenFOAM: The Open Source CFD Toolbox
   \\    /   O peration     | Website:  https://openfoam.org
    \\  /    A nd           | Version:  13
     \\/     M anipulation  |
\*---------------------------------------------------------------------------*/
FoamFile
{
    format      ascii;
    class       volScalarField;
    location    "589.831886";
    object      T;
}
// * * * * * * * * * * * * * * * * * * * * * * * * * * * * * * * * * * * * * //

dimensions      [0 0 0 1 0 0 0];

internalField   nonuniform List<scalar> 
5712
(
302.061
302.069
302.084
302.097
302.118
302.132
302.165
302.176
302.154
302.168
302.118
302.131
302.091
302.103
302.07
302.079
302.13
302.148
302.153
302.178
302.187
302.21
302.209
302.238
302.031
301.983
302.041
301.995
302.053
302.007
302.068
302.024
302.104
302.077
302.129
302.095
302.037
302.065
302.183
302.226
302.207
302.239
302.235
302.272
302.264
302.292
302.133
302.178
302.159
302.194
302.094
302.137
301.927
301.894
301.951
301.916
301.952
301.91
301.979
301.94
301.987
301.93
302.03
301.977
302.063
302.011
302.102
302.049
302.144
302.152
302.182
302.186
302.22
302.23
302.25
302.26
302.116
302.107
302.072
302.071
302.214
302.214
302.243
302.237
302.278
302.286
302.304
302.308
302.152
302.136
302.184
302.161
302.05
301.987
302.028
301.957
302.004
301.939
301.991
301.918
302.089
302.027
302.059
301.989
302.124
302.062
302.083
302.014
301.848
301.776
301.836
301.765
301.871
301.803
301.849
301.78
301.908
301.856
301.87
301.814
302.091
302.18
302.011
301.95
301.884
302.166
302.073
301.976
301.912
301.841
302.191
302.108
302.027
301.951
301.876
301.709
301.675
301.674
301.644
301.743
301.703
301.697
301.664
301.802
301.757
301.737
301.698
302.144
302.107
302.042
301.992
301.947
301.896
301.872
301.822
301.774
301.725
302.174
302.144
302.081
302.03
301.994
301.936
301.907
301.845
301.798
301.734
302.127
302.071
302.169
302.118
302.219
302.2
302.257
302.245
302.075
302.01
302.035
301.965
302.204
302.153
302.227
302.178
302.287
302.275
302.309
302.3
302.112
302.045
302.135
302.07
301.97
301.892
301.84
301.747
301.937
301.855
301.818
301.726
302
301.924
301.861
301.77
302.028
301.952
301.89
301.804
301.662
301.644
301.616
301.656
301.646
301.62
301.683
301.662
301.632
301.672
301.661
301.633
301.728
301.701
301.667
301.697
301.682
301.65
302.061
302.01
301.955
301.939
301.893
301.846
301.847
301.807
301.765
301.782
301.748
301.707
301.717
301.697
301.66
302.102
302.043
301.982
301.961
301.901
301.84
301.866
301.812
301.758
301.79
301.748
301.7
301.719
301.694
301.65
302.288
302.306
302.305
302.329
302.242
302.265
302.261
302.29
302.294
302.33
302.299
302.333
302.306
302.338
302.314
302.344
302.341
302.325
302.352
302.332
302.346
302.359
302.348
302.37
302.313
302.337
302.352
302.374
302.367
302.388
302.367
302.388
302.367
302.399
302.361
302.391
302.373
302.406
302.371
302.402
302.378
302.414
302.388
302.42
302.395
302.423
302.413
302.435
302.33
302.346
302.352
302.37
302.282
302.296
302.308
302.323
302.383
302.404
302.364
302.383
302.374
302.391
302.395
302.409
302.332
302.346
302.355
302.366
302.402
302.423
302.422
302.439
302.409
302.436
302.426
302.442
302.393
302.423
302.408
302.426
302.425
302.448
302.443
302.455
302.442
302.461
302.457
302.467
302.364
302.346
302.395
302.377
302.365
302.346
302.398
302.379
302.367
302.35
302.402
302.385
302.313
302.256
302.349
302.377
302.407
302.243
302.299
302.332
302.36
302.393
302.267
302.323
302.363
302.39
302.411
302.317
302.277
302.348
302.309
302.32
302.281
302.353
302.315
302.327
302.29
302.362
302.327
302.226
302.195
302.286
302.254
302.32
302.287
302.346
302.313
302.377
302.344
302.256
302.237
302.314
302.294
302.352
302.33
302.377
302.35
302.396
302.362
302.348
302.34
302.373
302.37
302.297
302.29
302.325
302.327
302.403
302.393
302.382
302.366
302.392
302.394
302.41
302.414
302.348
302.354
302.368
302.376
302.42
302.414
302.436
302.432
302.421
302.402
302.428
302.401
302.402
302.379
302.413
302.382
302.437
302.422
302.441
302.417
302.45
302.437
302.453
302.432
302.223
302.169
302.119
302.242
302.182
302.131
302.231
302.176
302.125
302.251
302.19
302.138
302.242
302.189
302.136
302.266
302.202
302.146
302.153
302.101
302.046
302.211
302.157
302.101
302.243
302.187
302.13
302.267
302.211
302.154
302.282
302.215
302.153
302.203
302.147
302.084
302.258
302.201
302.137
302.289
302.228
302.162
302.302
302.238
302.172
302.298
302.227
302.159
302.412
302.387
302.325
302.214
302.402
302.375
302.311
302.199
302.416
302.39
302.328
302.216
302.41
302.382
302.317
302.204
302.422
302.395
302.335
302.226
302.425
302.395
302.331
302.219
302.423
302.39
302.322
302.207
302.43
302.393
302.322
302.207
302.436
302.404
302.342
302.231
302.434
302.4
302.343
302.243
302.426
302.397
302.341
302.238
302.423
302.392
302.339
302.245
302.445
302.409
302.342
302.227
302.444
302.406
302.346
302.244
302.453
302.414
302.345
302.23
302.453
302.412
302.35
302.248
302.41
302.388
302.331
302.226
302.395
302.376
302.328
302.236
302.411
302.388
302.333
302.228
302.396
302.376
302.328
302.237
302.413
302.389
302.335
302.233
302.399
302.377
302.329
302.239
302.413
302.387
302.336
302.241
302.402
302.378
302.33
302.243
302.412
302.384
302.335
302.247
302.373
302.357
302.313
302.247
302.348
302.333
302.289
302.227
302.375
302.358
302.314
302.249
302.351
302.335
302.29
302.228
302.381
302.361
302.316
302.25
302.356
302.337
302.291
302.229
302.388
302.365
302.319
302.252
302.363
302.341
302.293
302.23
302.398
302.37
302.323
302.255
302.371
302.345
302.296
302.232
302.416
302.381
302.328
302.258
302.392
302.357
302.303
302.237
302.407
302.376
302.325
302.256
302.381
302.351
302.299
302.235
302.424
302.386
302.33
302.259
302.401
302.363
302.307
302.24
302.432
302.391
302.334
302.262
302.41
302.369
302.311
302.243
302.046
301.912
301.799
301.707
301.637
302.038
301.905
301.792
301.701
301.631
302.047
301.913
301.799
301.707
301.637
302.04
301.906
301.793
301.701
301.631
302.049
301.914
301.8
301.708
301.637
302.046
301.912
301.798
301.706
301.636
302.042
301.908
301.794
301.702
301.632
302.045
301.91
301.796
301.703
301.633
302.051
301.914
301.8
301.708
301.638
302.044
301.905
301.79
301.698
301.628
302.049
301.912
301.798
301.706
301.636
302.042
301.902
301.788
301.696
301.626
302.051
301.914
301.8
301.708
301.637
302.043
301.904
301.789
301.697
301.627
302.053
301.916
301.801
301.709
301.638
302.044
301.904
301.788
301.696
301.626
302.045
301.909
301.795
301.704
301.634
302.035
301.897
301.784
301.692
301.622
302.046
301.909
301.795
301.703
301.633
302.036
301.897
301.783
301.692
301.622
302.046
301.908
301.794
301.702
301.632
302.036
301.897
301.783
301.691
301.621
302.043
301.904
301.789
301.698
301.628
302.034
301.895
301.781
301.689
301.619
302.037
301.897
301.783
301.691
301.621
301.527
301.506
301.536
301.516
301.554
301.531
301.577
301.549
301.6
301.568
301.637
301.6
301.618
301.582
301.655
301.62
301.674
301.642
301.311
301.076
300.882
300.731
300.63
301.314
301.078
300.881
300.73
300.627
301.315
301.079
300.883
300.732
300.631
301.318
301.08
300.882
300.73
300.627
301.324
301.084
300.886
300.735
300.633
301.326
301.085
300.885
300.733
300.629
301.336
301.091
300.891
300.738
300.635
301.337
301.091
300.89
300.736
300.632
301.35
301.1
300.897
300.743
300.639
301.349
301.099
300.895
300.74
300.635
301.38
301.122
300.913
300.755
300.65
301.377
301.118
300.909
300.751
300.645
301.365
301.11
300.905
300.748
300.644
301.362
301.108
300.901
300.745
300.639
301.395
301.133
300.922
300.762
300.656
301.393
301.131
300.919
300.759
300.652
301.411
301.145
300.931
300.77
300.663
301.411
301.144
300.929
300.767
300.659
302.345
302.313
302.282
302.319
302.265
302.27
302.272
302.28
302.262
302.273
302.219
302.231
302.195
302.208
302.227
302.239
302.24
302.247
302.241
302.248
302.315
302.32
302.205
302.161
302.149
302.144
302.184
302.218
302.17
302.222
302.128
302.066
302.207
302.192
302.143
302.192
302.172
302.166
302.257
302.255
302.225
302.233
302.248
302.256
302.243
302.227
302.173
302.182
302.204
302.214
302.297
302.306
302.285
302.292
302.274
302.274
302.239
302.201
302.241
302.376
302.406
302.418
302.415
302.397
302.366
302.392
302.402
302.396
302.373
302.236
302.251
302.252
302.239
302.211
302.191
302.205
302.205
302.191
302.163
302.18
302.193
302.194
302.181
302.153
302.174
302.187
302.187
302.174
302.146
302.215
302.229
302.23
302.217
302.189
302.284
302.324
302.344
302.347
302.333
302.24
302.283
302.304
302.307
302.292
302.27
302.3
302.315
302.313
302.291
302.192
302.233
302.253
302.254
302.235
302.128
302.17
302.19
302.191
302.172
302.245
302.266
302.275
302.267
302.242
302.236
302.263
302.276
302.272
302.249
302.185
302.211
302.223
302.219
302.196
302.228
302.247
302.253
302.243
302.218
302.209
302.231
302.239
302.231
302.206
302.201
302.22
302.225
302.215
302.19
302.318
302.351
302.368
302.368
302.352
302.298
302.323
302.334
302.329
302.306
302.262
302.282
302.288
302.279
302.254
302.268
302.286
302.291
302.281
302.255
302.285
302.306
302.313
302.305
302.28
302.292
302.311
302.316
302.306
302.28
302.276
302.292
302.295
302.283
302.256
302.26
302.276
302.279
302.267
302.24
302.205
302.221
302.224
302.212
302.185
302.213
302.228
302.23
302.217
302.19
302.238
302.256
302.26
302.25
302.224
302.247
302.263
302.266
302.255
302.228
302.356
302.388
302.401
302.399
302.381
302.349
302.374
302.383
302.377
302.353
302.334
302.362
302.376
302.373
302.353
302.33
302.352
302.359
302.351
302.326
302.311
302.331
302.337
302.327
302.302
302.315
302.339
302.35
302.344
302.32
302.273
302.289
302.293
302.281
302.255
302.233
302.248
302.25
302.237
302.21
302.275
302.293
302.297
302.287
302.26
302.333
302.313
302.331
302.31
302.376
302.354
302.377
302.357
302.33
302.327
302.309
302.313
302.376
302.374
302.355
302.361
302.287
302.241
302.269
302.225
302.287
302.245
302.266
302.225
302.265
302.283
302.275
302.287
302.252
302.233
302.283
302.261
302.293
302.269
302.327
302.304
302.341
302.319
302.24
302.217
302.254
302.227
302.207
302.179
302.199
302.162
302.185
302.15
302.202
302.159
302.185
302.146
302.21
302.151
302.198
302.145
302.174
302.12
302.142
302.088
302.313
302.301
302.303
302.289
302.37
302.365
302.359
302.355
302.248
302.215
302.258
302.227
302.287
302.275
302.267
302.258
302.344
302.342
302.325
302.327
302.232
302.201
302.21
302.182
302.192
302.127
302.138
302.066
302.198
302.128
302.149
302.073
302.176
302.114
302.124
302.054
302.153
302.092
302.105
302.036
302.198
302.178
302.157
302.125
302.201
302.185
302.151
302.121
302.207
302.199
302.141
302.116
302.315
302.374
302.258
302.196
302.116
302.376
302.32
302.263
302.198
302.103
302.371
302.308
302.235
302.155
302.073
302.144
302.128
302.04
302.009
302.16
302.144
302.046
302.015
302.183
302.17
302.054
302.022
302.375
302.366
302.315
302.304
302.253
302.242
302.178
302.164
302.044
302.01
302.37
302.36
302.301
302.279
302.222
302.195
302.13
302.098
302.007
301.967
302.283
302.246
302.273
302.235
302.363
302.357
302.353
302.35
302.184
302.131
302.197
302.146
302.264
302.22
302.246
302.2
302.342
302.337
302.327
302.319
302.175
302.115
302.156
302.092
302.078
302.01
301.943
301.859
302.096
302.03
301.969
301.889
302.063
301.993
301.922
301.835
302.049
301.974
301.91
301.824
302.121
302.106
302.027
302.023
302.136
302.12
302.03
302.028
302.159
302.135
302.034
302.03
302.347
302.313
302.284
302.253
302.224
302.197
302.149
302.124
302.026
302.024
302.341
302.305
302.249
302.216
302.168
302.142
302.086
302.073
302.001
302.004
302.448
302.449
302.427
302.436
302.416
302.417
302.394
302.403
302.47
302.485
302.451
302.466
302.469
302.484
302.448
302.464
302.452
302.47
302.454
302.468
302.48
302.463
302.417
302.394
302.384
302.362
302.427
302.401
302.435
302.412
302.439
302.415
302.494
302.498
302.476
302.481
302.494
302.5
302.474
302.482
302.493
302.501
302.478
302.489
302.457
302.469
302.436
302.452
302.454
302.455
302.444
302.448
302.418
302.418
302.407
302.409
302.469
302.473
302.478
302.479
302.43
302.437
302.414
302.425
302.393
302.397
302.375
302.383
302.456
302.464
302.44
302.453
302.486
302.496
302.487
302.491
302.494
302.501
302.492
302.495
302.473
302.486
302.479
302.485
302.458
302.474
302.469
302.477
302.502
302.499
302.505
302.5
302.501
302.497
302.505
302.499
302.497
302.495
302.504
302.499
302.458
302.422
302.481
302.495
302.501
302.422
302.456
302.479
302.493
302.497
302.422
302.458
302.481
302.493
302.495
302.486
302.464
302.485
302.461
302.487
302.466
302.486
302.463
302.487
302.468
302.488
302.467
302.421
302.412
302.455
302.444
302.476
302.462
302.488
302.472
302.489
302.469
302.424
302.419
302.459
302.453
302.48
302.47
302.489
302.475
302.487
302.468
302.459
302.459
302.45
302.454
302.423
302.425
302.413
302.42
302.472
302.468
302.479
302.472
302.438
302.444
302.425
302.43
302.399
302.409
302.385
302.394
302.462
302.459
302.45
302.447
302.482
302.47
302.479
302.459
302.487
302.473
302.484
302.463
302.474
302.463
302.472
302.452
302.463
302.451
302.463
302.443
302.437
302.411
302.426
302.396
302.44
302.413
302.429
302.397
302.444
302.413
302.433
302.396
302.393
302.359
302.423
302.389
302.44
302.406
302.448
302.412
302.435
302.392
302.403
302.364
302.434
302.393
302.447
302.404
302.446
302.402
302.431
302.381
302.48
302.433
302.357
302.235
302.464
302.417
302.34
302.219
302.481
302.434
302.358
302.236
302.466
302.42
302.343
302.222
302.482
302.435
302.363
302.244
302.472
302.427
302.353
302.234
302.455
302.411
302.337
302.217
302.442
302.4
302.327
302.21
302.477
302.432
302.361
302.244
302.469
302.424
302.36
302.255
302.48
302.433
302.366
302.255
302.471
302.424
302.361
302.261
302.471
302.427
302.354
302.236
302.465
302.421
302.357
302.252
302.462
302.42
302.349
302.233
302.46
302.417
302.354
302.251
302.485
302.438
302.366
302.25
302.478
302.431
302.366
302.262
302.484
302.437
302.366
302.251
302.477
302.43
302.365
302.262
302.482
302.435
302.366
302.254
302.475
302.428
302.363
302.262
302.477
302.43
302.365
302.26
302.472
302.425
302.362
302.264
302.47
302.423
302.362
302.266
302.462
302.415
302.353
302.277
302.439
302.393
302.329
302.259
302.462
302.415
302.353
302.277
302.439
302.392
302.329
302.258
302.461
302.414
302.352
302.277
302.439
302.391
302.328
302.258
302.46
302.413
302.352
302.277
302.438
302.39
302.328
302.257
302.459
302.411
302.351
302.277
302.437
302.389
302.326
302.256
302.451
302.405
302.345
302.272
302.431
302.384
302.322
302.252
302.456
302.409
302.348
302.274
302.435
302.387
302.325
302.255
302.446
302.401
302.341
302.268
302.425
302.379
302.318
302.249
302.439
302.396
302.338
302.265
302.418
302.374
302.314
302.246
302.059
301.92
301.804
301.71
301.639
302.05
301.913
301.797
301.704
301.633
302.059
301.92
301.803
301.71
301.639
302.05
301.913
301.797
301.704
301.633
302.059
301.92
301.804
301.71
301.639
302.054
301.917
301.801
301.708
301.637
302.048
301.912
301.797
301.704
301.633
302.047
301.911
301.796
301.704
301.633
302.058
301.919
301.803
301.71
301.639
302.051
301.909
301.793
301.7
301.629
302.058
301.918
301.801
301.708
301.637
302.05
301.907
301.791
301.698
301.628
302.056
301.918
301.802
301.709
301.639
302.048
301.906
301.791
301.698
301.628
302.055
301.917
301.802
301.709
301.639
302.045
301.905
301.789
301.697
301.626
302.059
301.917
301.8
301.707
301.636
302.049
301.905
301.789
301.695
301.625
302.058
301.916
301.8
301.706
301.636
302.049
301.905
301.788
301.695
301.625
302.057
301.915
301.798
301.705
301.634
302.047
301.904
301.787
301.694
301.624
302.052
301.91
301.793
301.7
301.629
302.044
301.901
301.785
301.692
301.621
302.046
301.903
301.786
301.694
301.623
301.823
301.799
301.819
301.795
301.812
301.787
301.799
301.775
301.78
301.759
301.729
301.702
301.752
301.728
301.71
301.68
301.692
301.661
301.524
301.227
300.992
300.817
300.704
301.531
301.23
300.992
300.817
300.701
301.521
301.225
300.99
300.816
300.703
301.527
301.227
300.991
300.815
300.7
301.515
301.22
300.987
300.814
300.701
301.521
301.223
300.988
300.813
300.698
301.505
301.214
300.983
300.81
300.698
301.512
301.217
300.984
300.809
300.695
301.491
301.205
300.976
300.805
300.693
301.5
301.21
300.978
300.805
300.692
301.458
301.182
300.959
300.792
300.682
301.464
301.185
300.961
300.792
300.681
301.475
301.194
300.968
300.799
300.688
301.484
301.199
300.971
300.799
300.687
301.442
301.169
300.95
300.785
300.676
301.445
301.171
300.95
300.784
300.674
301.426
301.157
300.94
300.777
300.669
301.428
301.157
300.94
300.775
300.666
302.374
302.344
302.368
302.4
302.447
302.427
302.447
302.425
302.416
302.392
302.416
302.396
302.002
302.008
302.023
302.048
302.081
302.121
302
302.005
302.02
302.043
302.074
302.11
301.986
301.964
301.993
301.972
302.011
301.992
302.039
302.024
302.076
302.065
302.12
302.107
302.165
302.206
302.242
302.272
302.295
302.312
302.148
302.186
302.22
302.248
302.271
302.287
302.029
302.04
302.038
302.023
301.996
302.035
302.046
302.044
302.03
302.002
302.051
302.062
302.06
302.046
302.018
302.076
302.087
302.086
302.071
302.044
302.11
302.121
302.12
302.106
302.078
302.151
302.163
302.162
302.148
302.12
302.027
302.038
302.036
302.021
301.994
302.033
302.044
302.042
302.027
302
302.048
302.059
302.057
302.043
302.015
302.071
302.083
302.081
302.067
302.039
302.102
302.114
302.113
302.099
302.071
302.139
302.151
302.15
302.136
302.109
302.014
302.024
302.023
302.008
301.98
301.991
302.002
302
301.985
301.958
302.021
302.032
302.03
302.015
301.988
301.999
302.01
302.008
301.994
301.966
302.038
302.049
302.048
302.033
302.006
302.019
302.03
302.028
302.014
301.986
302.067
302.078
302.076
302.062
302.034
302.051
302.063
302.061
302.047
302.019
302.104
302.116
302.115
302.101
302.073
302.093
302.105
302.104
302.089
302.062
302.149
302.161
302.16
302.146
302.118
302.136
302.149
302.148
302.134
302.107
302.195
302.208
302.208
302.194
302.167
302.237
302.252
302.253
302.24
302.212
302.275
302.291
302.294
302.282
302.255
302.307
302.326
302.33
302.32
302.293
302.333
302.353
302.359
302.35
302.324
302.351
302.372
302.38
302.371
302.345
302.178
302.191
302.191
302.178
302.15
302.217
302.231
302.232
302.219
302.191
302.252
302.267
302.269
302.257
302.23
302.282
302.299
302.302
302.291
302.264
302.306
302.324
302.329
302.318
302.292
302.322
302.341
302.346
302.336
302.31
302.005
302.017
302.039
302.07
302.11
302.156
302.003
302.015
302.036
302.065
302.101
302.143
301.99
301.967
302.003
301.982
302.027
302.009
302.062
302.048
302.106
302.096
302.157
302.147
302.206
302.251
302.288
302.313
302.324
302.322
302.185
302.225
302.258
302.281
302.293
302.295
302.032
302.043
302.041
302.026
301.999
302.045
302.056
302.054
302.039
302.011
302.067
302.078
302.076
302.061
302.033
302.098
302.109
302.107
302.093
302.065
302.138
302.15
302.148
302.133
302.105
302.185
302.198
302.196
302.182
302.154
302.03
302.041
302.039
302.024
301.997
302.042
302.053
302.051
302.037
302.009
302.063
302.074
302.073
302.058
302.03
302.093
302.104
302.103
302.088
302.06
302.13
302.141
302.14
302.125
302.097
302.172
302.184
302.183
302.168
302.14
302.017
302.028
302.026
302.011
301.984
301.994
302.005
302.003
301.989
301.961
302.031
302.041
302.039
302.025
301.997
302.009
302.02
302.018
302.004
301.976
302.055
302.066
302.064
302.049
302.021
302.036
302.047
302.045
302.03
302.003
302.09
302.101
302.099
302.084
302.056
302.076
302.087
302.085
302.07
302.043
302.134
302.146
302.144
302.129
302.101
302.124
302.136
302.134
302.12
302.092
302.186
302.198
302.197
302.182
302.154
302.176
302.188
302.187
302.172
302.144
302.236
302.248
302.248
302.234
302.205
302.282
302.296
302.296
302.282
302.254
302.32
302.335
302.337
302.324
302.296
302.347
302.364
302.368
302.356
302.329
302.361
302.38
302.385
302.375
302.349
302.361
302.382
302.389
302.38
302.354
302.215
302.228
302.228
302.213
302.185
302.256
302.27
302.27
302.256
302.228
302.29
302.305
302.306
302.293
302.265
302.315
302.331
302.333
302.321
302.294
302.328
302.346
302.349
302.338
302.311
302.33
302.349
302.354
302.343
302.317
302.333
302.334
302.257
302.206
302.205
302.192
302.238
302.364
302.35
302.353
302.315
302.313
302.323
302.287
302.282
302.262
302.365
302.356
302.318
302.313
302.336
302.329
302.3
302.293
302.249
302.248
302.287
302.286
302.349
302.344
302.363
302.345
302.339
302.357
302.303
302.263
302.313
302.392
302.421
302.432
302.428
302.409
302.379
302.404
302.414
302.408
302.383
302.288
302.301
302.301
302.287
302.259
302.236
302.248
302.248
302.233
302.205
302.235
302.247
302.247
302.233
302.204
302.222
302.234
302.233
302.219
302.19
302.269
302.282
302.281
302.267
302.239
302.417
302.443
302.452
302.447
302.427
302.401
302.426
302.434
302.428
302.406
302.393
302.414
302.421
302.412
302.386
302.362
302.384
302.39
302.382
302.357
302.347
302.364
302.367
302.355
302.327
302.359
302.378
302.383
302.372
302.346
302.32
302.335
302.337
302.324
302.296
302.315
302.331
302.334
302.321
302.294
302.294
302.309
302.31
302.297
302.269
302.417
302.443
302.452
302.446
302.426
302.394
302.414
302.42
302.411
302.384
302.351
302.368
302.37
302.358
302.33
302.346
302.362
302.363
302.351
302.323
302.371
302.388
302.392
302.38
302.352
302.363
302.379
302.382
302.37
302.342
302.332
302.347
302.348
302.335
302.307
302.325
302.339
302.34
302.327
302.299
302.28
302.294
302.295
302.281
302.253
302.278
302.292
302.292
302.278
302.25
302.319
302.334
302.335
302.322
302.294
302.318
302.333
302.333
302.32
302.292
302.405
302.433
302.443
302.438
302.418
302.386
302.409
302.417
302.409
302.383
302.408
302.432
302.44
302.433
302.41
302.382
302.402
302.407
302.397
302.37
302.374
302.391
302.395
302.384
302.356
302.395
302.415
302.422
302.412
302.386
302.336
302.351
302.352
302.339
302.311
302.293
302.307
302.307
302.294
302.265
302.346
302.362
302.363
302.351
302.323
302.298
302.326
302.337
302.334
302.317
302.282
302.34
302.337
302.384
302.385
302.335
302.331
302.382
302.38
302.292
302.241
302.291
302.246
302.286
302.289
302.254
302.341
302.339
302.386
302.387
302.336
302.332
302.384
302.38
302.289
302.236
302.289
302.242
302.284
302.288
302.251
302.341
302.338
302.387
302.388
302.335
302.33
302.384
302.38
302.287
302.223
302.287
302.231
302.282
302.286
302.241
302.331
302.329
302.378
302.38
302.325
302.32
302.375
302.37
302.274
302.207
302.274
302.215
302.27
302.274
302.227
302.314
302.311
302.36
302.362
302.308
302.301
302.357
302.353
302.257
302.193
302.257
302.2
302.253
302.256
302.212
302.283
302.28
302.328
302.33
302.277
302.272
302.325
302.321
302.229
302.17
302.229
302.176
302.226
302.229
302.188
302.455
302.455
302.423
302.424
302.454
302.453
302.422
302.421
302.477
302.494
302.476
302.491
302.475
302.472
302.486
302.457
302.457
302.426
302.426
302.455
302.454
302.424
302.422
302.481
302.494
302.479
302.491
302.477
302.473
302.485
302.459
302.458
302.427
302.428
302.455
302.452
302.424
302.421
302.479
302.487
302.477
302.484
302.474
302.469
302.479
302.45
302.449
302.418
302.419
302.445
302.442
302.415
302.412
302.468
302.471
302.465
302.468
302.461
302.456
302.463
302.431
302.43
302.4
302.401
302.426
302.421
302.397
302.393
302.447
302.448
302.444
302.445
302.439
302.433
302.441
302.397
302.396
302.366
302.368
302.392
302.387
302.363
302.36
302.413
302.417
302.41
302.414
302.406
302.401
302.41
302.059
302.067
302.084
302.097
302.118
302.132
302.165
302.176
302.154
302.168
302.117
302.131
302.09
302.103
302.068
302.077
302.13
302.148
302.153
302.178
302.187
302.209
302.209
302.238
302.03
301.982
302.039
301.994
302.053
302.007
302.068
302.024
302.104
302.077
302.129
302.095
302.037
302.065
302.182
302.226
302.207
302.239
302.235
302.272
302.263
302.292
302.133
302.178
302.159
302.194
302.094
302.137
301.927
301.893
301.949
301.914
301.952
301.91
301.979
301.94
301.987
301.93
302.03
301.977
302.063
302.011
302.102
302.049
302.144
302.152
302.182
302.186
302.22
302.23
302.25
302.26
302.115
302.107
302.072
302.071
302.214
302.214
302.243
302.237
302.278
302.286
302.303
302.308
302.151
302.136
302.184
302.161
302.05
301.987
302.028
301.957
302.004
301.939
301.991
301.918
302.089
302.027
302.059
301.989
302.124
302.062
302.083
302.014
301.847
301.775
301.836
301.764
301.871
301.803
301.849
301.78
301.908
301.856
301.87
301.813
302.091
302.18
302.011
301.95
301.884
302.166
302.073
301.976
301.912
301.841
302.191
302.108
302.027
301.951
301.876
301.708
301.674
301.674
301.643
301.743
301.703
301.697
301.664
301.802
301.757
301.737
301.698
302.144
302.107
302.042
301.992
301.947
301.896
301.872
301.822
301.774
301.725
302.174
302.144
302.081
302.03
301.994
301.936
301.907
301.845
301.798
301.734
302.127
302.07
302.169
302.118
302.219
302.2
302.256
302.245
302.075
302.01
302.035
301.965
302.204
302.153
302.227
302.178
302.287
302.275
302.308
302.299
302.112
302.045
302.135
302.07
301.97
301.892
301.84
301.747
301.937
301.855
301.818
301.726
302
301.924
301.861
301.77
302.028
301.952
301.89
301.804
301.661
301.643
301.615
301.655
301.646
301.62
301.683
301.662
301.632
301.672
301.661
301.633
301.728
301.701
301.667
301.697
301.682
301.65
302.061
302.01
301.955
301.939
301.893
301.846
301.847
301.807
301.765
301.782
301.748
301.707
301.717
301.697
301.66
302.101
302.043
301.982
301.961
301.901
301.84
301.866
301.812
301.758
301.79
301.748
301.7
301.719
301.694
301.65
302.288
302.306
302.305
302.329
302.242
302.265
302.261
302.29
302.294
302.33
302.298
302.332
302.306
302.338
302.314
302.344
302.341
302.325
302.352
302.332
302.346
302.359
302.348
302.37
302.313
302.337
302.352
302.374
302.367
302.388
302.367
302.388
302.367
302.399
302.36
302.39
302.373
302.406
302.371
302.402
302.378
302.414
302.388
302.42
302.395
302.423
302.413
302.435
302.33
302.346
302.352
302.37
302.282
302.296
302.308
302.323
302.383
302.404
302.364
302.383
302.374
302.391
302.395
302.409
302.332
302.346
302.355
302.366
302.402
302.423
302.422
302.439
302.409
302.436
302.426
302.442
302.393
302.423
302.408
302.426
302.425
302.448
302.443
302.455
302.442
302.461
302.457
302.467
302.364
302.346
302.395
302.377
302.365
302.346
302.398
302.379
302.367
302.35
302.402
302.385
302.313
302.256
302.349
302.377
302.407
302.243
302.299
302.332
302.36
302.393
302.267
302.323
302.363
302.39
302.411
302.317
302.277
302.348
302.309
302.32
302.281
302.353
302.315
302.326
302.29
302.362
302.327
302.226
302.195
302.286
302.254
302.32
302.287
302.346
302.313
302.377
302.344
302.256
302.237
302.314
302.294
302.352
302.33
302.377
302.35
302.396
302.362
302.348
302.34
302.373
302.37
302.296
302.29
302.325
302.326
302.403
302.393
302.382
302.366
302.392
302.394
302.41
302.414
302.348
302.354
302.368
302.376
302.42
302.414
302.436
302.432
302.421
302.402
302.428
302.401
302.402
302.378
302.413
302.382
302.437
302.422
302.441
302.417
302.45
302.437
302.453
302.432
302.223
302.169
302.119
302.242
302.182
302.131
302.231
302.176
302.125
302.251
302.19
302.138
302.242
302.189
302.136
302.266
302.202
302.146
302.153
302.101
302.046
302.211
302.157
302.101
302.243
302.187
302.13
302.267
302.211
302.154
302.282
302.215
302.153
302.203
302.147
302.084
302.258
302.201
302.137
302.289
302.228
302.162
302.302
302.238
302.172
302.298
302.227
302.159
302.411
302.387
302.325
302.214
302.401
302.375
302.311
302.199
302.416
302.39
302.328
302.216
302.41
302.382
302.317
302.205
302.422
302.395
302.335
302.226
302.425
302.395
302.331
302.219
302.423
302.39
302.322
302.207
302.43
302.393
302.322
302.207
302.436
302.404
302.342
302.231
302.434
302.4
302.343
302.243
302.426
302.397
302.341
302.238
302.423
302.392
302.339
302.245
302.445
302.409
302.342
302.227
302.444
302.406
302.346
302.244
302.453
302.414
302.345
302.23
302.453
302.412
302.35
302.248
302.41
302.387
302.331
302.226
302.395
302.376
302.328
302.236
302.411
302.388
302.333
302.228
302.396
302.376
302.328
302.237
302.413
302.389
302.335
302.233
302.399
302.377
302.329
302.239
302.413
302.387
302.336
302.241
302.402
302.378
302.33
302.243
302.412
302.384
302.335
302.247
302.373
302.357
302.313
302.247
302.348
302.334
302.289
302.227
302.375
302.358
302.314
302.249
302.351
302.335
302.29
302.228
302.381
302.361
302.316
302.25
302.356
302.337
302.291
302.229
302.388
302.365
302.319
302.252
302.363
302.341
302.293
302.23
302.398
302.37
302.323
302.255
302.371
302.345
302.296
302.232
302.416
302.381
302.328
302.258
302.392
302.357
302.303
302.237
302.407
302.376
302.325
302.256
302.381
302.351
302.299
302.235
302.424
302.386
302.33
302.259
302.401
302.363
302.307
302.24
302.432
302.391
302.334
302.262
302.41
302.369
302.311
302.243
302.046
301.912
301.799
301.707
301.637
302.038
301.905
301.792
301.701
301.631
302.047
301.913
301.799
301.707
301.637
302.04
301.907
301.793
301.701
301.631
302.049
301.914
301.8
301.708
301.638
302.046
301.912
301.798
301.706
301.636
302.042
301.908
301.794
301.702
301.632
302.045
301.91
301.796
301.703
301.633
302.051
301.914
301.8
301.708
301.638
302.044
301.905
301.79
301.698
301.628
302.049
301.912
301.798
301.706
301.636
302.042
301.902
301.788
301.696
301.626
302.051
301.915
301.8
301.708
301.637
302.043
301.904
301.789
301.697
301.627
302.053
301.916
301.801
301.709
301.638
302.044
301.904
301.788
301.696
301.626
302.045
301.909
301.795
301.704
301.634
302.035
301.897
301.784
301.692
301.622
302.046
301.909
301.795
301.703
301.633
302.036
301.897
301.783
301.692
301.622
302.046
301.908
301.794
301.702
301.632
302.036
301.897
301.783
301.691
301.621
302.043
301.904
301.789
301.698
301.628
302.034
301.895
301.781
301.689
301.619
302.037
301.897
301.783
301.691
301.621
301.526
301.506
301.536
301.516
301.554
301.531
301.577
301.549
301.6
301.568
301.637
301.6
301.618
301.582
301.655
301.62
301.674
301.642
301.31
301.076
300.881
300.731
300.63
301.314
301.078
300.881
300.73
300.627
301.315
301.079
300.883
300.732
300.631
301.318
301.08
300.882
300.73
300.627
301.324
301.084
300.886
300.735
300.633
301.326
301.084
300.885
300.733
300.629
301.336
301.091
300.891
300.738
300.635
301.337
301.091
300.89
300.736
300.632
301.35
301.1
300.897
300.743
300.639
301.349
301.099
300.895
300.74
300.635
301.38
301.122
300.913
300.755
300.65
301.377
301.118
300.909
300.751