/*--------------------------------*- C++ -*----------------------------------*\
  =========                 |
  \\      /  F ield         | OpenFOAM: The Open Source CFD Toolbox
   \\    /   O peration     | Website:  https://openfoam.org
    \\  /    A nd           | Version:  12
     \\/     M anipulation  |
\*---------------------------------------------------------------------------*/
FoamFile
{
    format      ascii;
    class       volScalarField;
    location    "250";
    object      T;
}
// * * * * * * * * * * * * * * * * * * * * * * * * * * * * * * * * * * * * * //

dimensions      [];

internalField   nonuniform List<scalar> 
4480
(
1.76472e-09
2.39837e-07
0.000254792
0.00839841
0.0440577
0.106967
0.183021
0.260385
0.332446
0.396419
0.45169
0.498689
0.538268
0.571384
0.598942
0.621752
0.640502
0.655775
0.668052
0.67773
0.685142
0.690556
0.694198
0.696249
0.696863
0.696168
0.694271
0.691718
0.689133
0.686502
0.683812
0.681049
0.678198
0.675244
0.672173
0.668972
0.665624
0.662112
0.658419
0.654529
0.650425
0.646082
0.641482
0.636606
0.631429
0.625925
0.62007
0.61384
0.607204
0.600129
0.592592
0.58456
0.575991
0.566855
0.557111
0.546716
0.53563
0.523804
0.511177
0.497693
0.483276
0.467849
0.451317
0.433584
0.41454
0.394092
0.372159
0.348719
0.323804
0.297561
0.270236
0.242207
0.213955
0.186042
0.159064
0.133595
0.110135
0.0890656
0.0706246
0.054896
0.041822
0.0312282
0.0228567
0.0164636
0.0117082
0.0082512
0.00579033
0.00407025
0.00288553
0.00207775
0.00152945
0.00115657
0.000900875
0.000723139
0.000597591
0.000507593
0.000442546
0.000395731
0.000362921
0.00034149
0.000329912
0.000327487
0.000334228
0.000350891
0.00037907
0.000421458
0.000482241
0.00056773
0.000687346
0.00085513
0.00109205
0.00142953
0.00191471
0.00261848
0.00364696
0.00515827
0.00738552
0.010668
0.0154939
0.0225789
0.033075
0.0490706
0.0743816
0.117499
0.208153
0.389323
0.569751
0.763258
0.72438
0.415224
0.229221
0.0906859
0.0319682
0.0110337
0.00338857
0.000866387
0.000169161
2.12035e-05
1.28203e-06
1.96641e-08
1.03231e-09
1.73538e-05
0.00404405
0.051552
0.159227
0.288376
0.409121
0.51027
0.590919
0.653976
0.703075
0.741449
0.771659
0.795626
0.814756
0.830099
0.842419
0.852291
0.86015
0.866332
0.871098
0.874642
0.877128
0.878677
0.879391
0.879346
0.878604
0.877039
0.874638
0.871477
0.867632
0.863177
0.858184
0.852717
0.846835
0.840597
0.834049
0.827235
0.820188
0.812942
0.805521
0.797944
0.79022
0.782363
0.774375
0.766253
0.757997
0.749595
0.741038
0.732312
0.723399
0.714287
0.704947
0.69536
0.685504
0.67535
0.664875
0.654047
0.642835
0.63121
0.619128
0.606558
0.593448
0.579752
0.565417
0.550387
0.534594
0.517976
0.500479
0.482048
0.462641
0.442236
0.420832
0.398455
0.375159
0.351039
0.326226
0.300887
0.275243
0.249538
0.224059
0.199114
0.175013
0.152184
0.130953
0.111534
0.0940742
0.078644
0.0652359
0.0537771
0.0441393
0.0361553
0.0296345
0.0243779
0.0201907
0.0168912
0.0143179
0.0123317
0.0108178
0.00968418
0.00885996
0.00829293
0.00794749
0.00780246
0.00785029
0.00809626
0.00855967
0.00927549
0.0102983
0.0117075
0.0136153
0.0161774
0.0196082
0.0241994
0.0303441
0.0385669
0.0495594
0.0642267
0.0837507
0.109706
0.144284
0.190613
0.252934
0.336513
0.446389
0.578667
0.712397
0.824683
0.786645
0.537314
0.327595
0.176471
0.0844408
0.0357437
0.0130436
0.00392113
0.000903293
0.000138128
1.09096e-05
2.69315e-07
3.13276e-07
0.000344897
0.0245779
0.148257
0.321063
0.477761
0.598224
0.68522
0.74713
0.791643
0.824381
0.84912
0.868279
0.883412
0.895524
0.905297
0.913205
0.919592
0.924723
0.928798
0.93198
0.934391
0.936138
0.937299
0.937939
0.938108
0.937846
0.937095
0.935811
0.934016
0.931731
0.928966
0.925738
0.922056
0.917941
0.913406
0.908477
0.903173
0.897519
0.891537
0.885254
0.878693
0.871878
0.864828
0.857563
0.850103
0.842457
0.834641
0.826661
0.818526
0.81024
0.801802
0.793211
0.784463
0.775558
0.766482
0.757231
0.747793
0.738155
0.728307
0.71823
0.707911
0.697326
0.686461
0.675288
0.663781
0.651912
0.639647
0.62695
0.613788
0.600112
0.585889
0.571072
0.55562
0.539486
0.522638
0.50504
0.486661
0.467484
0.44751
0.426742
0.405221
0.382998
0.360202
0.337022
0.313645
0.290283
0.267166
0.244536
0.222638
0.201698
0.181924
0.163487
0.14652
0.131112
0.117308
0.105114
0.0944963
0.0853982
0.077741
0.0714361
0.066394
0.0625328
0.0597836
0.0580999
0.0574618
0.0578816
0.0594119
0.0621506
0.0662484
0.0719195
0.0794511
0.0892159
0.101683
0.117431
0.137152
0.161661
0.191888
0.228874
0.273753
0.3277
0.391754
0.466353
0.550542
0.641009
0.731047
0.810563
0.867068
0.839849
0.650707
0.44974
0.277913
0.152377
0.0731232
0.0300276
0.0101265
0.00263435
0.000465758
4.4845e-05
1.47813e-06
1.06661e-05
0.00305157
0.0836267
0.290745
0.491486
0.636272
0.731044
0.792204
0.832809
0.861194
0.882221
0.898588
0.911756
0.92253
0.931399
0.938695
0.944673
0.949535
0.953452
0.956569
0.959008
0.960869
0.962235
0.963178
0.963747
0.963983
0.963921
0.963537
0.962813
0.96176
0.960383
0.95868
0.956654
0.954299
0.95161
0.948588
0.945233
0.941541
0.937522
0.933179
0.928523
0.923566
0.918318
0.912797
0.907017
0.900996
0.894748
0.88829
0.881636
0.874802
0.8678
0.860639
0.853332
0.845885
0.838307
0.830603
0.822776
0.814824
0.806757
0.798566
0.790255
0.781816
0.773249
0.764548
0.755701
0.746701
0.737541
0.728202
0.718674
0.708934
0.698966
0.68875
0.678257
0.667464
0.656338
0.644848
0.632961
0.620642
0.607848
0.59454
0.580682
0.566237
0.55117
0.535419
0.519008
0.501938
0.48423
0.465932
0.447109
0.427856
0.408295
0.388572
0.368855
0.349328
0.330191
0.311642
0.293887
0.277117
0.261514
0.247244
0.234453
0.223268
0.213801
0.20615
0.200411
0.196677
0.195056
0.195671
0.198677
0.204264
0.212666
0.224167
0.239098
0.257836
0.280792
0.30839
0.341041
0.379094
0.422783
0.472144
0.526896
0.586262
0.64873
0.711837
0.772129
0.825302
0.866382
0.889658
0.871277
0.739422
0.563985
0.385195
0.232826
0.12262
0.0550596
0.0202525
0.00576617
0.00112991
0.000124283
4.94411e-06
0.000143975
0.0153717
0.193522
0.453427
0.639278
0.749521
0.813277
0.851979
0.877648
0.896523
0.91162
0.924262
0.934977
0.944009
0.951531
0.95771
0.962725
0.966742
0.969917
0.972392
0.974291
0.975714
0.976748
0.977458
0.9779
0.97811
0.978118
0.977915
0.977471
0.976796
0.975893
0.974762
0.973403
0.97181
0.969979
0.967901
0.965569
0.962981
0.960127
0.95701
0.953623
0.949973
0.946057
0.941887
0.937467
0.932807
0.927921
0.922817
0.917511
0.912015
0.906343
0.90051
0.894527
0.888408
0.882166
0.875812
0.869355
0.8628
0.856163
0.849445
0.842653
0.835792
0.828868
0.82188
0.814826
0.807714
0.800535
0.793288
0.78597
0.778574
0.771093
0.763515
0.755836
0.748038
0.74011
0.732034
0.723796
0.715372
0.70674
0.697885
0.688775
0.679386
0.669695
0.659636
0.649199
0.638358
0.627087
0.615367
0.603194
0.590568
0.577502
0.564027
0.550196
0.536075
0.521758
0.507359
0.493016
0.478887
0.46515
0.452
0.439645
0.428304
0.418204
0.409575
0.402649
0.397661
0.394842
0.394424
0.396642
0.401729
0.40991
0.421413
0.436441
0.455179
0.477762
0.504255
0.53463
0.56872
0.606182
0.646448
0.688672
0.731688
0.773956
0.813593
0.848438
0.876158
0.89421
0.899492
0.884084
0.79859
0.656148
0.485704
0.318311
0.181286
0.0877804
0.0346972
0.0106181
0.00224741
0.000271266
1.22502e-05
0.00107647
0.0513819
0.343726
0.605197
0.747819
0.820255
0.859593
0.883959
0.901571
0.916096
0.928937
0.940333
0.950187
0.958458
0.965212
0.97061
0.974842
0.978098
0.98056
0.982382
0.983702
0.984633
0.985269
0.98568
0.985919
0.986026
0.986023
0.985915
0.98564
0.985205
0.984611
0.983855
0.982937
0.981849
0.980586
0.979139
0.977502
0.975666
0.973625
0.971374
0.968907
0.966219
0.96331
0.960182
0.956836
0.953275
0.949506
0.945537
0.941378
0.937038
0.93253
0.927866
0.923058
0.91812
0.913063
0.907903
0.902652
0.897318
0.891912
0.886449
0.880938
0.875382
0.869793
0.864175
0.858534
0.852875
0.847199
0.841509
0.83581
0.830092
0.824361
0.818611
0.81284
0.807045
0.801214
0.795347
0.78943
0.783461
0.777428
0.771317
0.76512
0.75883
0.752431
0.745885
0.739179
0.732305
0.725247
0.717989
0.71052
0.70283
0.69492
0.686788
0.678445
0.66991
0.661219
0.652418
0.643568
0.634753
0.626069
0.617637
0.6096
0.602115
0.595364
0.589544
0.584862
0.581541
0.579804
0.579882
0.581994
0.586347
0.593134
0.602505
0.614579
0.629413
0.646994
0.667219
0.689885
0.714662
0.741085
0.768535
0.796236
0.823255
0.848507
0.870792
0.888818
0.901205
0.906394
0.902306
0.885313
0.831844
0.721596
0.570069
0.400435
0.244313
0.126518
0.0532825
0.0173474
0.0039093
0.000506476
2.51149e-05
0.00532421
0.126419
0.505898
0.722557
0.816224
0.860049
0.884615
0.901589
0.915669
0.92873
0.941091
0.952237
0.961706
0.969381
0.975392
0.97997
0.983357
0.985781
0.987444
0.988526
0.989178
0.989527
0.989676
0.989708
0.989675
0.989616
0.98955
0.989484
0.989327
0.989081
0.988741
0.988298
0.987744
0.987071
0.98627
0.985328
0.984238
0.982992
0.981579
0.979996
0.978234
0.976287
0.974156
0.971837
0.96933
0.966636
0.963757
0.960699
0.957472
0.954078
0.950529
0.946839
0.943013
0.939064
0.935008
0.930855
0.926615
0.922306
0.917936
0.913516
0.909058
0.904571
0.900065
0.895547
0.891027
0.886508
0.881995
0.877494
0.873006
0.868537
0.864083
0.859649
0.855229
0.850828
0.846441
0.842063
0.837692
0.833326
0.828962
0.824596
0.820218
0.815831
0.811431
0.806982
0.802494
0.797959
0.79337
0.788723
0.784016
0.779248
0.774415
0.769524
0.764582
0.759596
0.754589
0.749579
0.744605
0.739706
0.734936
0.730364
0.726067
0.722144
0.718701
0.715861
0.71376
0.712542
0.71236
0.713368
0.715714
0.719542
0.724965
0.732079
0.740935
0.751537
0.763826
0.777672
0.792869
0.809124
0.826047
0.843161
0.859895
0.87559
0.889515
0.900876
0.908806
0.912356
0.9104
0.901349
0.882387
0.845019
0.76248
0.633794
0.472174
0.30618
0.16853
0.0752049
0.0258966
0.00616772
0.000848682
4.55231e-05
0.0195687
0.245942
0.64789
0.798317
0.85443
0.881563
0.898695
0.912373
0.925222
0.938164
0.950788
0.961941
0.971002
0.977962
0.983101
0.98675
0.989202
0.990705
0.991479
0.991718
0.991594
0.991255
0.990825
0.990389
0.990012
0.98973
0.989561
0.989501
0.98944
0.989365
0.989265
0.989122
0.988921
0.988648
0.988283
0.987814
0.987226
0.986509
0.985655
0.984649
0.983491
0.982171
0.980686
0.979035
0.977214
0.97523
0.973079
0.970767
0.968298
0.965682
0.962922
0.960029
0.957013
0.953886
0.950656
0.947336
0.943939
0.940476
0.936958
0.933397
0.929806
0.926188
0.922561
0.918929
0.915298
0.911681
0.908079
0.904501
0.900945
0.897419
0.893925
0.890466
0.887036
0.883644
0.880281
0.876952
0.873655
0.870386
0.867148
0.863934
0.860744
0.857582
0.854439
0.85131
0.848177
0.84505
0.841927
0.838807
0.835694
0.832593
0.829499
0.826426
0.82338
0.820368
0.817405
0.814513
0.811708
0.809022
0.806483
0.804136
0.802023
0.800206
0.798738
0.797698
0.797163
0.797213
0.79794
0.799425
0.801761
0.805017
0.809262
0.814531
0.820839
0.828167
0.836449
0.84557
0.855362
0.865598
0.875988
0.886184
0.895768
0.904277
0.911179
0.915899
0.917794
0.916144
0.910057
0.898241
0.878343
0.845395
0.784486
0.677003
0.529307
0.361975
0.210602
0.0991721
0.0359965
0.00903205
0.00131535
7.59985e-05
0.0582224
0.397023
0.747055
0.840125
0.874905
0.89384
0.907493
0.919797
0.932456
0.945885
0.959043
0.97015
0.978603
0.984669
0.988821
0.99147
0.992917
0.993411
0.993183
0.992448
0.99141
0.990251
0.989114
0.988109
0.987308
0.986751
0.986446
0.986377
0.986402
0.986505
0.986658
0.986835
0.98701
0.987158
0.987254
0.987273
0.987198
0.987012
0.986699
0.986254
0.985661
0.984922
0.984025
0.982971
0.981758
0.980389
0.978862
0.977186
0.975363
0.973399
0.971302
0.969079
0.966742
0.964298
0.961757
0.959133
0.956432
0.953671
0.950857
0.948003
0.94512
0.942217
0.9393
0.936383
0.933472
0.930573
0.927694
0.924838
0.92201
0.919216
0.916456
0.913732
0.911048
0.908399
0.905793
0.903225
0.900697
0.898207
0.895754
0.893338
0.890956
0.888614
0.886306
0.884034
0.881772
0.879534
0.877323
0.875137
0.872982
0.870857
0.868773
0.86673
0.864744
0.862815
0.860961
0.859194
0.85753
0.855984
0.854587
0.853357
0.852331
0.851534
0.851008
0.850795
0.850938
0.851482
0.852478
0.853968
0.855997
0.858599
0.861804
0.865614
0.870028
0.875008
0.880491
0.886377
0.892537
0.898787
0.904908
0.910631
0.915643
0.919588
0.922058
0.922602
0.920723
0.91584
0.907221
0.893749
0.873343
0.84171
0.790566
0.7029
0.570718
0.408364
0.249743
0.123674
0.0472225
0.0124753
0.00192405
0.000119942
0.141065
0.552248
0.798858
0.861673
0.886678
0.901633
0.913546
0.92533
0.938276
0.952489
0.966267
0.977128
0.984738
0.989773
0.992894
0.994509
0.994887
0.994255
0.992862
0.990967
0.988823
0.986659
0.98466
0.982961
0.981648
0.980759
0.980297
0.980207
0.980333
0.980639
0.981088
0.981638
0.982245
0.982872
0.983482
0.984044
0.984527
0.984911
0.985176
0.985308
0.985297
0.985133
0.984811
0.98433
0.983691
0.982895
0.981942
0.980838
0.979588
0.978201
0.976679
0.975036
0.97328
0.971417
0.969463
0.967427
0.965314
0.963142
0.960918
0.958651
0.956355
0.954039
0.951709
0.949375
0.947046
0.944728
0.942426
0.940148
0.937895
0.935673
0.93348
0.931328
0.929209
0.927132
0.925091
0.923088
0.921126
0.919201
0.917316
0.915466
0.913657
0.911885
0.910149
0.908453
0.906774
0.905126
0.903506
0.901916
0.900359
0.898842
0.897365
0.895935
0.894559
0.893248
0.892004
0.890843
0.889773
0.888811
0.887974
0.887272
0.886734
0.886373
0.886216
0.88629
0.886614
0.887217
0.888122
0.88935
0.890925
0.892855
0.895145
0.897788
0.900763
0.904029
0.907524
0.91116
0.914823
0.918365
0.921607
0.924332
0.926289
0.927187
0.926699
0.924463
0.920078
0.913059
0.902787
0.88824
0.867485
0.836628
0.788514
0.712598
0.597669
0.443915
0.283716
0.147271
0.0590797
0.0164473
0.00269417
0.000182042
0.246991
0.665461
0.832095
0.87435
0.894203
0.906978
0.917924
0.929585
0.943068
0.958239
0.972631
0.982992
0.989558
0.993513
0.995614
0.996179
0.995385
0.993445
0.990646
0.987327
0.983817
0.980416
0.977362
0.974826
0.972901
0.971633
0.971007
0.970903
0.971162
0.97173
0.972547
0.973552
0.974682
0.975882
0.977098
0.978287
0.979408
0.980433
0.981338
0.9821
0.982709
0.983155
0.98343
0.983533
0.983465
0.983228
0.982826
0.982265
0.981551
0.980693
0.979698
0.978576
0.977338
0.975992
0.974548
0.973018
0.971414
0.969746
0.96802
0.966254
0.964453
0.962626
0.960784
0.958934
0.957084
0.95524
0.953409
0.951592
0.949801
0.948031
0.946294
0.944586
0.94291
0.941268
0.939659
0.938088
0.93655
0.935048
0.93358
0.932144
0.930744
0.929382
0.92805
0.926755
0.925483
0.924234
0.92301
0.921815
0.920654
0.919522
0.918431
0.917378
0.91637
0.915417
0.914518
0.913691
0.912937
0.912267
0.911691
0.911226
0.91088
0.910667
0.910598
0.910696
0.910963
0.911424
0.91208
0.912946
0.914027
0.91532
0.916818
0.918503
0.920344
0.922301
0.924313
0.926296
0.928152
0.929747
0.930932
0.931524
0.931311
0.93005
0.92747
0.923275
0.91713
0.908629
0.897209
0.8819
0.86083
0.830345
0.784027
0.712717
0.607759
0.468816
0.311274
0.168825
0.0710892
0.0208889
0.00364891
0.000268819
0.368715
0.738056
0.852998
0.884347
0.899739
0.910738
0.921115
0.932859
0.947015
0.963245
0.97823
0.987815
0.993205
0.996123
0.997261
0.996726
0.994577
0.991041
0.986497
0.981401
0.976201
0.971289
0.966965
0.963437
0.960815
0.959132
0.958357
0.958268
0.958721
0.95964
0.960934
0.962515
0.964295
0.966193
0.96814
0.970075
0.971946
0.973714
0.975344
0.976813
0.978105
0.979211
0.980125
0.980841
0.981367
0.981701
0.981852
0.981826
0.981633
0.981282
0.980783
0.980146
0.979384
0.978506
0.977524
0.976449
0.975293
0.974065
0.972779
0.971441
0.970065
0.968658
0.967228
0.965783
0.964335
0.962884
0.961439
0.960005
0.958585
0.957186
0.955808
0.954454
0.953126
0.951826
0.950555
0.949312
0.948101
0.946915
0.94576
0.944634
0.943538
0.942472
0.941432
0.940424
0.939433
0.938466
0.937515
0.93659
0.93569
0.934813
0.933966
0.933151
0.93237
0.931628
0.930932
0.930285
0.929693
0.929163
0.928703
0.928317
0.928015
0.927808
0.927702
0.927702
0.927816
0.92805
0.928405
0.928887
0.929488
0.9302
0.931007
0.931889
0.932809
0.933723
0.934568
0.935275
0.935745
0.935866
0.935498
0.934485
0.932644
0.929769
0.925633
0.919992
0.912562
0.902982
0.890723
0.874821
0.85341
0.822982
0.777617
0.709149
0.609873
0.478842
0.329042
0.187605
0.0828511
0.0257456
0.00481714
0.000389378
0.491376
0.784771
0.867107
0.891472
0.904237
0.91362
0.923384
0.935304
0.950196
0.967556
0.983109
0.991662
0.995838
0.99784
0.998072
0.99631
0.992507
0.986968
0.980236
0.972937
0.965673
0.958946
0.953129
0.948465
0.945072
0.942972
0.942098
0.94208
0.942826
0.944221
0.946139
0.948454
0.951046
0.953807
0.956639
0.959465
0.962218
0.964846
0.967308
0.969578
0.971636
0.973469
0.975075
0.97645
0.9776
0.978528
0.979249
0.979767
0.980092
0.980242
0.980225
0.980056
0.979743
0.979304
0.978749
0.978091
0.977342
0.976511
0.975615
0.974656
0.973653
0.972609
0.971536
0.970441
0.96933
0.968214
0.967092
0.965975
0.964865
0.963766
0.962682
0.961615
0.960566
0.959536
0.95853
0.957544
0.956581
0.955641
0.954724
0.953831
0.952959
0.952108
0.951284
0.95048
0.949692
0.948919
0.948162
0.947419
0.946695
0.945986
0.945298
0.944633
0.94399
0.943372
0.942787
0.942234
0.941715
0.94124
0.940808
0.940423
0.940095
0.939824
0.939612
0.939467
0.939386
0.93937
0.939415
0.939522
0.939675
0.939866
0.940072
0.940266
0.94041
0.940465
0.940363
0.940037
0.939397
0.938342
0.936747
0.934472
0.931356
0.927231
0.9219
0.915155
0.906755
0.896364
0.883456
0.867044
0.845241
0.814609
0.769588
0.702763
0.607249
0.481986
0.337911
0.198958
0.0920697
0.03049
0.00620383
0.000556459
0.576357
0.829498
0.877032
0.896568
0.907426
0.916039
0.925011
0.937007
0.952649
0.971186
0.987311
0.994615
0.997633
0.998896
0.998231
0.995003
0.989115
0.981046
0.971591
0.961607
0.951876
0.943023
0.935501
0.929585
0.92539
0.922908
0.92203
0.922181
0.923358
0.925396
0.928124
0.931367
0.934964
0.938773
0.942668
0.946548
0.950328
0.953946
0.957359
0.960528
0.963436
0.966072
0.968431
0.970515
0.97233
0.973886
0.975195
0.97627
0.977125
0.977775
0.978236
0.978522
0.978648
0.978628
0.978478
0.978208
0.977837
0.977372
0.976828
0.976214
0.975541
0.974821
0.974061
0.97327
0.972454
0.971622
0.970778
0.969928
0.969077
0.968229
0.967386
0.966551
0.965726
0.964917
0.96412
0.963335
0.96257
0.961816
0.961083
0.960361
0.959659
0.95897
0.9583
0.957644
0.957003
0.956367
0.95574
0.955123
0.954514
0.953916
0.953326
0.95275
0.952187
0.951639
0.951105
0.95059
0.950093
0.949619
0.94917
0.948744
0.948345
0.947975
0.947631
0.947315
0.947024
0.946755
0.9465
0.94625
0.945996
0.945716
0.945389
0.944983
0.944465
0.943785
0.942886
0.941699
0.940145
0.938121
0.935522
0.932222
0.928084
0.922958
0.916683
0.909083
0.899932
0.88891
0.875476
0.858591
0.83632
0.80526
0.760122
0.694089
0.601014
0.480001
0.340775
0.204947
0.0979132
0.0338991
0.00731876
0.000709599
0.63485
0.845358
0.884184
0.900132
0.909523
0.917552
0.926475
0.938016
0.954385
0.974127
0.990868
0.996769
0.998773
0.999492
0.997864
0.99279
0.984244
0.973014
0.960235
0.94705
0.934443
0.923174
0.913766
0.906518
0.901534
0.898762
0.898026
0.898498
0.900296
0.903197
0.906964
0.911364
0.916187
0.92125
0.926396
0.931499
0.936458
0.941201
0.945674
0.949839
0.953681
0.957187
0.960356
0.963194
0.965712
0.967923
0.969845
0.971491
0.972883
0.974039
0.974976
0.975713
0.976267
0.976654
0.976892
0.976994
0.976977
0.976853
0.976636
0.976337
0.975967
0.975537
0.975056
0.974534
0.973977
0.973392
0.972786
0.972165
0.971534
0.970894
0.970252
0.969613
0.968973
0.968338
0.967709
0.967087
0.966472
0.965866
0.965269
0.964681
0.964103
0.963536
0.962977
0.962427
0.961886
0.961345
0.960806
0.960271
0.959735
0.959204
0.958673
0.958145
0.95762
0.957101
0.956582
0.95607
0.95556
0.955055
0.954557
0.95406
0.953569
0.95308
0.952587
0.952093
0.951591
0.951073
0.950529
0.949948
0.949315
0.948608
0.947803
0.946871
0.945769
0.944452
0.942864
0.940942
0.938606
0.935768
0.93233
0.928182
0.923204
0.917269
0.910244
0.901964
0.892224
0.880703
0.866814
0.849457
0.82663
0.794942
0.749319
0.683461
0.591902
0.474074
0.339027
0.20666
0.100855
0.0360031
0.00810362
0.000830405
0.678502
0.857293
0.889923
0.902454
0.91063
0.918199
0.927215
0.938849
0.955406
0.97636
0.99381
0.998245
0.999436
0.999795
0.997028
0.989584
0.977679
0.962573
0.945835
0.928934
0.913064
0.899116
0.887682
0.879078
0.873382
0.870477
0.869727
0.870753
0.873468
0.877552
0.882681
0.888547
0.894879
0.901446
0.908057
0.914565
0.920855
0.926848
0.932487
0.937736
0.942579
0.947011
0.951035
0.954663
0.957911
0.960798
0.963345
0.965576
0.96751
0.969172
0.970584
0.971766
0.972738
0.973521
0.974133
0.97459
0.974909
0.975106
0.975194
0.975186
0.975092
0.974927
0.9747
0.974416
0.974089
0.973724
0.973326
0.972903
0.97246
0.972
0.971528
0.971046
0.970559
0.970067
0.969572
0.969079
0.968585
0.968091
0.9676
0.967112
0.966625
0.966141
0.965662
0.965187
0.964712
0.964233
0.963751
0.963263
0.962772
0.962274
0.961771
0.961263
0.960746
0.960225
0.959696
0.959158
0.95861
0.958052
0.957483
0.9569
0.956301
0.955679
0.955035
0.95436
0.953644
0.952884
0.952064
0.951172
0.950189
0.949091
0.947853
0.946444
0.944823
0.942942
0.940754
0.93819
0.93518
0.931643
0.927493
0.922631
0.916959
0.910365
0.902733
0.893919
0.883715
0.871779
0.857474
0.839622
0.816139
0.783638
0.73723
0.671089
0.580401
0.465033
0.333698
0.205009
0.101412
0.0369495
0.00855811
0.000911527
0.711877
0.865799
0.893203
0.903707
0.910816
0.917963
0.927135
0.939458
0.955836
0.977865
0.99617
0.999171
0.99978
0.999931
0.995726
0.985246
0.969175
0.949429
0.928096
0.906985
0.887502
0.870657
0.857107
0.847182
0.840923
0.838123
0.837524
0.839402
0.843358
0.848955
0.855766
0.863396
0.871503
0.879803
0.888073
0.896144
0.903894
0.911234
0.918114
0.924507
0.930397
0.935787
0.940689
0.945123
0.949111
0.952679
0.955854
0.958665
0.961137
0.963299
0.965175
0.966793
0.968173
0.969338
0.970309
0.971107
0.971744
0.972242
0.972615
0.972875
0.97304
0.973115
0.973117
0.973052
0.97293
0.972758
0.972543
0.972291
0.972011
0.971702
0.971374
0.971025
0.970663
0.970286
0.969902
0.969508
0.969105
0.968699
0.968288
0.967871
0.967451
0.967028
0.966601
0.96617
0.965736
0.965294
0.964842
0.964379
0.963905
0.963418
0.962918
0.962403
0.961876
0.961331
0.96077
0.960188
0.959584
0.958959
0.958304
0.957621
0.956902
0.956143
0.955338
0.95448
0.953559
0.95256
0.951478
0.950289
0.948978
0.947519
0.945883
0.94404
0.941948
0.939567
0.936839
0.933709
0.93011
0.925969
0.921211
0.915751
0.909503
0.902373
0.894259
0.885021
0.874442
0.862149
0.847439
0.82904
0.80479
0.771297
0.723862
0.6571
0.566841
0.453465
0.325558
0.200732
0.10007
0.0369311
0.00871638
0.000952926
0.737658
0.871779
0.894947
0.903976
0.910081
0.916814
0.926153
0.939205
0.956229
0.978616
0.997968
0.999685
0.999933
0.999982
0.993925
0.979604
0.958486
0.933324
0.90679
0.881035
0.857642
0.837723
0.82201
0.810857
0.804262
0.801894
0.801989
0.805109
0.810706
0.818193
0.827022
0.8367
0.846809
0.857022
0.867084
0.876819
0.886092
0.89483
0.902978
0.910523
0.917462
0.923806
0.929578
0.934805
0.939518
0.943753
0.947539
0.950912
0.953905
0.956551
0.958875
0.960908
0.962677
0.964205
0.965517
0.966631
0.967571
0.968349
0.968989
0.969498
0.969897
0.970192
0.970401
0.970531
0.970592
0.97059
0.970536
0.970434
0.970292
0.970113
0.969904
0.969666
0.969407
0.969123
0.968824
0.968508
0.968178
0.967834
0.967479
0.967112
0.966738
0.96635
0.965954
0.965552
0.965137
0.964711
0.964267
0.963808
0.96333
0.962835
0.962318
0.961782
0.961221
0.960638
0.960027
0.959386
0.958714
0.958004
0.957255
0.956459
0.955613
0.954712
0.953743
0.952702
0.951575
0.950349
0.949009
0.947541
0.945918
0.944118
0.942115
0.939872
0.937352
0.934511
0.931302
0.927669
0.923553
0.918892
0.913613
0.907649
0.900927
0.893366
0.884872
0.875299
0.864418
0.8518
0.836665
0.817651
0.79251
0.757858
0.709187
0.641561
0.551454
0.439798
0.315189
0.194419
0.0972506
0.0361445
0.00862845
0.000959075
0.757619
0.875867
0.895559
0.903193
0.90842
0.914693
0.924198
0.938064
0.956412
0.978759
0.999212
0.999918
0.999986
0.999997
0.991561
0.972484
0.945389
0.914067
0.881806
0.851048
0.823503
0.800364
0.78246
0.770228
0.763631
0.761764
0.763085
0.768086
0.775969
0.785929
0.797247
0.80932
0.821673
0.833947
0.845883
0.857306
0.8681
0.878202
0.887579
0.896229
0.904164
0.91141
0.918
0.923971
0.929362
0.93422
0.938578
0.942477
0.945954
0.949046
0.951789
0.954213
0.956341
0.958209
0.959835
0.961245
0.962459
0.963499
0.964378
0.965116
0.965724
0.96622
0.966614
0.966917
0.967137
0.967286
0.967368
0.967395
0.967371
0.967301
0.967189
0.967043
0.966865
0.966657
0.966422
0.966165
0.965885
0.965585
0.965267
0.964932
0.964583
0.964216
0.963833
0.963435
0.963022
0.962595
0.962142
0.961669
0.961172
0.960651
0.960104
0.959528
0.958923
0.958284
0.95761
0.956898
0.956142
0.955339
0.954483
0.953569
0.952591
0.951539
0.950406
0.94918
0.947846
0.946395
0.944809
0.943067
0.94115
0.939028
0.936679
0.934065
0.93115
0.927894
0.924252
0.92017
0.915601
0.910486
0.904767
0.898389
0.891286
0.883388
0.8746
0.86477
0.853629
0.840689
0.825092
0.805367
0.779198
0.743218
0.693144
0.624496
0.534393
0.42435
0.303041
0.186537
0.0933086
0.0347704
0.00834786
0.000936538
0.772979
0.878406
0.895073
0.901222
0.905799
0.911536
0.921175
0.935913
0.955706
0.978889
0.999892
0.999993
1
1
0.988562
0.963717
0.929711
0.891563
0.853163
0.817154
0.785272
0.75876
0.738616
0.725501
0.719371
0.717241
0.720698
0.728623
0.739785
0.753044
0.767465
0.782336
0.797155
0.811578
0.825381
0.83843
0.850643
0.861995
0.872476
0.88211
0.890928
0.89897
0.906278
0.912903
0.91889
0.924294
0.929156
0.933521
0.937429
0.940922
0.944035
0.946803
0.949256
0.951424
0.953332
0.955005
0.956466
0.957735
0.95883
0.959769
0.960566
0.961236
0.96179
0.962243
0.962602
0.962877
0.963077
0.963212
0.963284
0.963301
0.963271
0.963193
0.963078
0.962925
0.962736
0.962519
0.962273
0.962
0.961701
0.961383
0.96104
0.960675
0.960289
0.959885
0.959458
0.959011
0.958537
0.958034
0.957502
0.956941
0.956346
0.955718
0.955055
0.954348
0.9536
0.952803
0.951954
0.951047
0.950078
0.949037
0.947918
0.946712
0.945408
0.943993
0.942456
0.940782
0.938953
0.936949
0.934746
0.932322
0.929644
0.926685
0.923406
0.919769
0.915735
0.911259
0.906297
0.900797
0.894713
0.888002
0.880604
0.872453
0.863446
0.853412
0.842034
0.828756
0.812623
0.792066
0.764714
0.727256
0.675644
0.605881
0.515755
0.407356
0.289459
0.177457
0.0885344
0.0329646
0.00792461
0.000892319
0.784577
0.879705
0.893742
0.89847
0.90218
0.907256
0.916975
0.932651
0.954095
0.979009
1
0.999999
0.999998
0.999999
0.984859
0.953156
0.911336
0.865836
0.821059
0.779702
0.743362
0.71325
0.690676
0.676889
0.671875
0.671568
0.678109
0.689824
0.704963
0.722002
0.739791
0.757545
0.774777
0.791201
0.806672
0.821114
0.834515
0.846884
0.858254
0.86867
0.878185
0.886854
0.894733
0.901879
0.908346
0.914192
0.919462
0.924205
0.928469
0.932295
0.935715
0.938773
0.941498
0.94392
0.946065
0.947963
0.949634
0.951098
0.952378
0.953486
0.954442
0.955256
0.955948
0.956525
0.956996
0.957378
0.957672
0.957891
0.958039
0.958124
0.958151
0.958124
0.958052
0.957935
0.957777
0.957581
0.957349
0.957089
0.956794
0.956473
0.956122
0.955747
0.955344
0.954915
0.95446
0.95398
0.953466
0.952921
0.952342
0.951729
0.951076
0.950381
0.949645
0.948861
0.948025
0.947134
0.946181
0.945162
0.944068
0.942891
0.941626
0.940257
0.938777
0.937176
0.935432
0.933535
0.931468
0.929203
0.926728
0.924009
0.921023
0.91774
0.914124
0.910144
0.905762
0.90094
0.895641
0.889825
0.883455
0.876489
0.868876
0.860548
0.851381
0.841175
0.829557
0.815887
0.799115
0.777586
0.748888
0.7098
0.656552
0.58567
0.495594
0.388985
0.274708
0.16747
0.0831605
0.0308559
0.00740199
0.000832911
0.793014
0.879981
0.891655
0.894858
0.897498
0.90177
0.911477
0.928145
0.951471
0.978608
1
1
0.999998
0.999997
0.980399
0.940671
0.890221
0.837053
0.785927
0.739353
0.698515
0.664409
0.638827
0.624531
0.618636
0.622434
0.635088
0.653193
0.673937
0.695463
0.716693
0.73706
0.756276
0.774229
0.790897
0.8063
0.820485
0.833517
0.845457
0.856374
0.866339
0.875414
0.883667
0.891158
0.897954
0.904104
0.909661
0.91468
0.919202
0.923271
0.926925
0.930202
0.933135
0.935754
0.938088
0.940157
0.941992
0.94361
0.945033
0.946275
0.947354
0.948284
0.94908
0.949752
0.950314
0.950772
0.951135
0.951414
0.951618
0.951747
0.951815
0.951819
0.951769
0.951669
0.951523
0.951333
0.951101
0.950833
0.950528
0.950189
0.949816
0.949412
0.948977
0.94851
0.948014
0.947488
0.946923
0.946322
0.945682
0.945
0.944277
0.943506
0.942685
0.941809
0.940875
0.939876
0.93881
0.937665
0.936436
0.935116
0.933692
0.932157
0.930495
0.928697
0.926744
0.924625
0.922316
0.9198
0.917056
0.914056
0.910779
0.907193
0.903271
0.898984
0.894299
0.889186
0.883613
0.877552
0.870971
0.86383
0.856076
0.847635
0.838353
0.827981
0.816082
0.801932
0.784382
0.761705
0.731487
0.690637
0.635713
0.563775
0.473925
0.369362
0.258991
0.156804
0.0773708
0.0285471
0.00681534
0.000763809
0.798679
0.879381
0.888826
0.890132
0.891205
0.894994
0.904553
0.922244
0.947697
0.977584
0.999997
0.999997
0.999998
0.999996
0.97513
0.926142
0.866391
0.805576
0.74853
0.697262
0.652099
0.613388
0.583258
0.567926
0.562837
0.575597
0.598798
0.625572
0.652271
0.677583
0.70119
0.723069
0.743274
0.761892
0.779019
0.794752
0.809187
0.822418
0.834528
0.845597
0.855706
0.864929
0.873324
0.88096
0.887896
0.894194
0.8999
0.905062
0.909728
0.913939
0.917733
0.921147
0.924212
0.926958
0.929414
0.931603
0.933549
0.935271
0.936791
0.938126
0.939289
0.940296
0.941164
0.9419
0.942514
0.943023
0.94343
0.943743
0.943975
0.944126
0.944208
0.944224
0.944178
0.944076
0.943922
0.943721
0.943469
0.943178
0.942846
0.942473
0.942065
0.941617
0.941135
0.940618
0.940066
0.939478
0.938848
0.938177
0.937463
0.936702
0.935891
0.935029
0.934109
0.933131
0.932086
0.930969
0.929772
0.928492
0.927117
0.925638
0.924048
0.922333
0.920482
0.918482
0.916314
0.913967
0.911419
0.908652
0.905647
0.902381
0.89883
0.894968
0.890773
0.886219
0.881281
0.875936
0.870158
0.863927
0.857208
0.849971
0.842146
0.833632
0.824247
0.813682
0.801422
0.786656
0.768146
0.744128
0.712215
0.669498
0.612909
0.540071
0.450732
0.348569
0.242464
0.145634
0.0713079
0.0261183
0.00619241
0.000689379
0.801781
0.878065
0.885422
0.884483
0.883437
0.886867
0.89607
0.914765
0.942591
0.975912
1
1
0.999998
1
0.969001
0.909435
0.839963
0.772034
0.710145
0.655457
0.606832
0.563153
0.525078
0.49573
0.508193
0.549289
0.587217
0.617164
0.644983
0.670908
0.69512
0.716764
0.736608
0.754812
0.771526
0.786873
0.800959
0.813879
0.825724
0.836572
0.846502