/*--------------------------------*- C++ -*----------------------------------*\
| =========                 |                                                 |
| \\      /  F ield         | OpenFOAM: The Open Source CFD Toolbox           |
|  \\    /   O peration     | Version:  2306                                  |
|   \\  /    A nd           | Website:  www.openfoam.com                      |
|    \\/     M anipulation  |                                                 |
\*---------------------------------------------------------------------------*/
FoamFile
{
    version     2.0;
    format      ascii;
    arch        "LSB;label=32;scalar=64";
    class       volScalarField;
    location    "30";
    object      p;
}
// * * * * * * * * * * * * * * * * * * * * * * * * * * * * * * * * * * * * * //

dimensions      [0 2 -2 0 0 0 0];

internalField   nonuniform List<scalar> 
4480
(
0.0107439
0.0107318
0.0107288
0.0107293
0.0107318
0.0107367
0.0107442
0.0107543
0.0107671
0.0107823
0.0108
0.01082
0.0108418
0.010865
0.010889
0.0109129
0.0109358
0.0109565
0.0109744
0.0109883
0.0109967
0.0109986
0.0109935
0.0109812
0.0109618
0.0109358
0.010904
0.0108675
0.0108273
0.0107847
0.0107406
0.0106963
0.0106525
0.0106099
0.0105692
0.0105308
0.010495
0.0104619
0.0104317
0.0104041
0.0103792
0.0103567
0.0103366
0.0103185
0.0103024
0.010288
0.0102752
0.0102638
0.0102537
0.0102447
0.0102366
0.0102294
0.010223
0.0102173
0.0102121
0.0102075
0.0102033
0.0101995
0.010196
0.0101928
0.0101899
0.0101872
0.0101847
0.0101824
0.0101802
0.0101781
0.0101761
0.0101742
0.0101724
0.0101706
0.0101688
0.0101671
0.0101654
0.0101637
0.010162
0.0101603
0.0101587
0.010157
0.0101553
0.0101536
0.0101518
0.0101501
0.0101483
0.0101465
0.0101446
0.0101427
0.0101408
0.0101388
0.0101368
0.0101347
0.0101326
0.0101303
0.0101281
0.0101257
0.0101232
0.0101206
0.0101179
0.0101151
0.0101121
0.0101089
0.0101055
0.0101019
0.0100979
0.0100937
0.0100891
0.0100841
0.0100786
0.0100726
0.010066
0.010059
0.0100521
0.0100467
0.0100448
0.0100489
0.0100841
0.0102891
0.0108652
0.0105638
0.004486
0.00386305
0.00397479
0.00476983
0.011093
0.0113089
0.010645
0.010388
0.0103175
0.0102858
0.0102655
0.0102525
0.0102438
0.0102373
0.0102319
0.0102271
0.0102228
0.0102188
0.0102151
0.0102118
0.0102085
0.0102036
0.0107558
0.0107435
0.0107422
0.0107435
0.0107462
0.0107505
0.0107568
0.0107649
0.0107751
0.0107871
0.010801
0.0108166
0.0108335
0.0108514
0.0108698
0.010888
0.0109051
0.0109204
0.0109333
0.010943
0.0109481
0.0109479
0.0109418
0.0109297
0.0109117
0.0108882
0.0108599
0.0108276
0.0107921
0.0107546
0.0107159
0.0106769
0.0106384
0.0106009
0.0105648
0.0105306
0.0104986
0.0104689
0.0104415
0.0104163
0.0103933
0.0103723
0.0103532
0.0103359
0.0103201
0.0103058
0.0102928
0.0102811
0.0102704
0.0102607
0.0102518
0.0102438
0.0102365
0.0102299
0.0102238
0.0102182
0.0102132
0.0102085
0.0102043
0.0102003
0.0101967
0.0101933
0.0101902
0.0101873
0.0101846
0.010182
0.0101796
0.0101772
0.010175
0.0101729
0.0101708
0.0101688
0.0101669
0.0101649
0.0101631
0.0101612
0.0101593
0.0101574
0.0101556
0.0101537
0.0101518
0.0101499
0.0101479
0.010146
0.0101439
0.0101419
0.0101398
0.0101376
0.0101354
0.0101331
0.0101307
0.0101282
0.0101256
0.0101229
0.01012
0.010117
0.0101138
0.0101104
0.0101067
0.0101027
0.0100984
0.0100937
0.0100885
0.0100828
0.0100763
0.0100691
0.0100609
0.0100515
0.0100405
0.0100277
0.0100125
0.00999393
0.00996948
0.00993259
0.00987298
0.00978107
0.0095729
0.00876092
0.00711128
0.00681618
0.00695224
0.00745368
0.00917893
0.00994719
0.0101071
0.0101643
0.0101963
0.0102095
0.0102136
0.0102147
0.0102148
0.0102142
0.0102132
0.0102119
0.0102104
0.0102087
0.0102069
0.0102053
0.0102034
0.0101987
0.0107587
0.0107443
0.0107428
0.0107441
0.0107466
0.0107506
0.0107565
0.0107641
0.0107736
0.010785
0.010798
0.0108127
0.0108288
0.0108459
0.0108634
0.0108807
0.0108969
0.0109114
0.0109237
0.010933
0.0109377
0.0109372
0.0109309
0.0109187
0.0109007
0.0108773
0.0108491
0.0108171
0.0107821
0.010745
0.010707
0.0106687
0.0106309
0.0105943
0.0105592
0.010526
0.0104949
0.0104661
0.0104396
0.0104152
0.0103929
0.0103726
0.0103541
0.0103372
0.0103219
0.0103079
0.0102952
0.0102836
0.010273
0.0102633
0.0102545
0.0102464
0.0102391
0.0102323
0.0102261
0.0102205
0.0102153
0.0102105
0.0102061
0.010202
0.0101982
0.0101947
0.0101915
0.0101885
0.0101856
0.0101829
0.0101804
0.010178
0.0101757
0.0101735
0.0101714
0.0101693
0.0101673
0.0101653
0.0101633
0.0101614
0.0101595
0.0101576
0.0101557
0.0101538
0.0101518
0.0101499
0.0101479
0.0101459
0.0101438
0.0101417
0.0101396
0.0101374
0.0101351
0.0101328
0.0101303
0.0101278
0.0101251
0.0101223
0.0101194
0.0101162
0.0101129
0.0101094
0.0101055
0.0101014
0.0100969
0.010092
0.0100866
0.0100805
0.0100737
0.010066
0.0100571
0.0100468
0.0100347
0.0100201
0.010002
0.00997867
0.00994693
0.00990033
0.00982689
0.00970319
0.00946965
0.00900061
0.00836574
0.00818823
0.00829152
0.0086209
0.00931094
0.00977849
0.00999394
0.0100968
0.0101498
0.0101773
0.0101917
0.0101995
0.0102038
0.0102059
0.0102068
0.0102068
0.0102063
0.0102053
0.0102041
0.0102029
0.0102012
0.0101956
0.0107582
0.0107421
0.0107403
0.0107414
0.0107436
0.0107474
0.0107529
0.0107602
0.0107694
0.0107804
0.0107931
0.0108075
0.0108233
0.0108401
0.0108575
0.0108748
0.0108909
0.0109054
0.0109179
0.0109272
0.0109319
0.0109312
0.0109246
0.0109119
0.0108934
0.0108694
0.0108406
0.010808
0.0107725
0.0107352
0.010697
0.0106588
0.0106213
0.010585
0.0105505
0.010518
0.0104876
0.0104596
0.0104339
0.0104104
0.0103889
0.0103693
0.0103515
0.0103353
0.0103205
0.010307
0.0102947
0.0102835
0.0102732
0.0102638
0.0102551
0.0102472
0.0102399
0.0102332
0.0102271
0.0102214
0.0102162
0.0102114
0.010207
0.0102028
0.010199
0.0101955
0.0101922
0.0101891
0.0101862
0.0101835
0.0101809
0.0101785
0.0101761
0.0101739
0.0101717
0.0101696
0.0101676
0.0101656
0.0101636
0.0101616
0.0101597
0.0101578
0.0101558
0.0101539
0.0101519
0.0101499
0.0101479
0.0101459
0.0101438
0.0101417
0.0101396
0.0101373
0.010135
0.0101327
0.0101302
0.0101276
0.0101249
0.0101221
0.0101191
0.010116
0.0101126
0.010109
0.0101052
0.010101
0.0100964
0.0100914
0.0100859
0.0100798
0.0100729
0.010065
0.010056
0.0100455
0.010033
0.0100178
0.00999901
0.00997483
0.00994253
0.00989752
0.0098324
0.00973485
0.00958158
0.00933751
0.00904235
0.00895179
0.00903045
0.00923739
0.00958168
0.00984028
0.00999066
0.0100776
0.0101291
0.0101599
0.0101783
0.0101894
0.0101961
0.0102
0.0102022
0.0102031
0.0102032
0.0102028
0.0102019
0.010201
0.0101994
0.0101929
0.0107557
0.0107382
0.0107361
0.0107371
0.010739
0.0107425
0.0107477
0.0107547
0.0107634
0.010774
0.0107864
0.0108005
0.0108161
0.0108328
0.0108501
0.0108673
0.0108835
0.0108981
0.0109108
0.0109201
0.0109247
0.0109236
0.0109164
0.0109031
0.0108836
0.0108587
0.010829
0.0107956
0.0107595
0.0107217
0.0106832
0.010645
0.0106077
0.0105719
0.0105381
0.0105064
0.0104771
0.0104501
0.0104255
0.010403
0.0103826
0.010364
0.0103471
0.0103318
0.0103178
0.010305
0.0102933
0.0102826
0.0102727
0.0102636
0.0102553
0.0102476
0.0102405
0.0102339
0.0102279
0.0102222
0.0102171
0.0102123
0.0102078
0.0102037
0.0101999
0.0101963
0.0101929
0.0101898
0.0101869
0.0101841
0.0101815
0.010179
0.0101766
0.0101743
0.0101721
0.01017
0.0101679
0.0101659
0.0101639
0.0101619
0.0101599
0.0101579
0.010156
0.010154
0.0101521
0.0101501
0.010148
0.010146
0.0101439
0.0101418
0.0101396
0.0101373
0.010135
0.0101326
0.0101301
0.0101276
0.0101248
0.010122
0.010119
0.0101158
0.0101125
0.0101089
0.010105
0.0101008
0.0100962
0.0100912
0.0100857
0.0100796
0.0100727
0.0100648
0.0100559
0.0100454
0.0100331
0.0100182
0.00999992
0.00997691
0.00994717
0.00990778
0.00985475
0.00978295
0.00968528
0.00955508
0.00941962
0.00938391
0.00944467
0.00957221
0.00975097
0.00990138
0.0100048
0.0100738
0.0101194
0.0101493
0.0101687
0.0101813
0.0101894
0.0101946
0.0101977
0.0101994
0.0102002
0.0102002
0.0101997
0.010199
0.0101975
0.0101905
0.0107509
0.0107323
0.0107299
0.0107307
0.0107324
0.0107355
0.0107404
0.010747
0.0107554
0.0107657
0.0107778
0.0107917
0.0108072
0.0108239
0.0108414
0.0108587
0.010875
0.01089
0.0109029
0.0109123
0.0109166
0.010915
0.0109071
0.0108927
0.010872
0.0108458
0.0108148
0.0107801
0.010743
0.0107044
0.0106655
0.0106272
0.0105901
0.0105548
0.0105217
0.0104911
0.0104629
0.0104371
0.0104138
0.0103926
0.0103735
0.0103561
0.0103404
0.0103262
0.0103132
0.0103013
0.0102904
0.0102803
0.0102711
0.0102625
0.0102546
0.0102472
0.0102404
0.0102341
0.0102282
0.0102227
0.0102176
0.0102129
0.0102084
0.0102043
0.0102005
0.0101969
0.0101936
0.0101904
0.0101875
0.0101847
0.010182
0.0101795
0.0101771
0.0101748
0.0101725
0.0101704
0.0101682
0.0101662
0.0101642
0.0101621
0.0101602
0.0101582
0.0101562
0.0101542
0.0101522
0.0101502
0.0101482
0.0101461
0.010144
0.0101419
0.0101397
0.0101375
0.0101351
0.0101327
0.0101302
0.0101277
0.0101249
0.0101221
0.0101191
0.010116
0.0101126
0.010109
0.0101052
0.010101
0.0100965
0.0100916
0.0100862
0.0100802
0.0100734
0.0100658
0.0100572
0.0100472
0.0100355
0.0100216
0.0100049
0.00998436
0.00995885
0.00992673
0.00988618
0.0098356
0.00977414
0.00970428
0.00964402
0.00963511
0.00968146
0.00976363
0.00986234
0.00995422
0.0100264
0.0100797
0.0101179
0.0101446
0.0101631
0.0101758
0.0101845
0.0101903
0.010194
0.0101963
0.0101975
0.0101979
0.0101977
0.0101972
0.0101958
0.0101885
0.0107435
0.0107241
0.0107215
0.010722
0.0107234
0.0107263
0.0107308
0.0107371
0.0107452
0.0107552
0.0107671
0.010781
0.0107965
0.0108134
0.0108312
0.0108489
0.0108655
0.0108809
0.0108942
0.0109036
0.0109077
0.0109054
0.0108964
0.0108805
0.0108582
0.0108302
0.0107975
0.0107612
0.0107227
0.0106831
0.0106436
0.010605
0.0105681
0.0105333
0.0105011
0.0104716
0.0104447
0.0104204
0.0103986
0.010379
0.0103614
0.0103455
0.0103312
0.0103183
0.0103065
0.0102957
0.0102858
0.0102767
0.0102682
0.0102603
0.0102529
0.010246
0.0102396
0.0102336
0.0102279
0.0102226
0.0102177
0.0102131
0.0102088
0.0102047
0.010201
0.0101974
0.0101941
0.0101909
0.010188
0.0101852
0.0101825
0.01018
0.0101775
0.0101752
0.0101729
0.0101707
0.0101686
0.0101665
0.0101645
0.0101625
0.0101605
0.0101585
0.0101565
0.0101545
0.0101525
0.0101505
0.0101484
0.0101464
0.0101443
0.0101421
0.0101399
0.0101377
0.0101354
0.010133
0.0101305
0.0101279
0.0101252
0.0101224
0.0101195
0.0101164
0.0101131
0.0101096
0.0101058
0.0101018
0.0100974
0.0100926
0.0100874
0.0100816
0.0100753
0.0100681
0.01006
0.0100508
0.0100401
0.0100277
0.0100131
0.00999578
0.00997506
0.00995027
0.00992089
0.00988697
0.00984973
0.00981308
0.00978752
0.00979032
0.00982468
0.00988052
0.00994186
0.0100003
0.0100506
0.0100908
0.0101215
0.0101442
0.0101609
0.0101728
0.0101813
0.0101873
0.0101913
0.0101939
0.0101954
0.010196
0.010196
0.0101958
0.0101945
0.0101872
0.0107336
0.0107135
0.0107107
0.010711
0.0107122
0.0107147
0.0107189
0.0107249
0.0107327
0.0107425
0.0107543
0.0107682
0.0107839
0.0108011
0.0108193
0.0108375
0.0108546
0.0108705
0.0108842
0.0108937
0.0108973
0.0108941
0.0108836
0.0108659
0.0108415
0.0108112
0.0107763
0.010738
0.0106978
0.010657
0.0106168
0.0105779
0.0105412
0.0105072
0.010476
0.0104478
0.0104226
0.0104
0.0103799
0.0103621
0.0103463
0.0103323
0.0103196
0.0103083
0.0102979
0.0102885
0.0102798
0.0102717
0.0102641
0.010257
0.0102503
0.010244
0.0102381
0.0102325
0.0102272
0.0102222
0.0102175
0.0102131
0.0102089
0.0102049
0.0102012
0.0101978
0.0101945
0.0101913
0.0101884
0.0101856
0.0101829
0.0101804
0.010178
0.0101756
0.0101733
0.0101711
0.010169
0.0101669
0.0101648
0.0101628
0.0101608
0.0101588
0.0101568
0.0101548
0.0101528
0.0101508
0.0101487
0.0101467
0.0101446
0.0101424
0.0101403
0.010138
0.0101357
0.0101334
0.0101309
0.0101284
0.0101258
0.010123
0.0101201
0.0101171
0.0101139
0.0101105
0.0101068
0.010103
0.0100988
0.0100942
0.0100893
0.0100839
0.010078
0.0100714
0.0100641
0.0100558
0.0100464
0.0100358
0.0100236
0.0100095
0.00999341
0.0099751
0.00995471
0.00993292
0.00991133
0.00989308
0.00988398
0.00989149
0.00991717
0.00995633
0.00999872
0.010038
0.0100734
0.0101035
0.0101277
0.0101465
0.0101609
0.0101717
0.0101796
0.0101854
0.0101894
0.0101921
0.0101938
0.0101946
0.0101948
0.0101947
0.0101935
0.0101865
0.0107211
0.0107006
0.0106976
0.0106977
0.0106986
0.0107008
0.0107047
0.0107103
0.0107179
0.0107275
0.0107392
0.0107531
0.0107691
0.0107867
0.0108054
0.0108242
0.0108418
0.0108584
0.0108726
0.010882
0.0108849
0.0108805
0.0108682
0.0108481
0.0108211
0.010788
0.0107505
0.0107099
0.0106678
0.0106256
0.0105846
0.0105456
0.0105092
0.0104761
0.0104462
0.0104197
0.0103963
0.0103758
0.0103579
0.0103422
0.0103285
0.0103164
0.0103058
0.0102962
0.0102876
0.0102796
0.0102723
0.0102654
0.0102589
0.0102528
0.0102469
0.0102413
0.010236
0.0102309
0.010226
0.0102214
0.010217
0.0102128
0.0102088
0.010205
0.0102014
0.010198
0.0101948
0.0101917
0.0101888
0.010186
0.0101834
0.0101808
0.0101784
0.010176
0.0101738
0.0101715
0.0101694
0.0101673
0.0101652
0.0101632
0.0101612
0.0101592
0.0101572
0.0101552
0.0101532
0.0101511
0.0101491
0.0101471
0.010145
0.0101429
0.0101407
0.0101385
0.0101362
0.0101339
0.0101315
0.010129
0.0101265
0.0101238
0.010121
0.010118
0.010115
0.0101117
0.0101082
0.0101046
0.0101006
0.0100964
0.0100919
0.0100869
0.0100815
0.0100756
0.0100691
0.0100619
0.010054
0.0100451
0.0100352
0.0100243
0.0100122
0.00999923
0.00998566
0.0099723
0.00996054
0.00995254
0.00995143
0.00996051
0.00998029
0.0100083
0.0100392
0.0100677
0.0100933
0.0101159
0.0101349
0.0101503
0.0101625
0.0101719
0.0101791
0.0101845
0.0101884
0.0101911
0.0101928
0.0101937
0.0101941
0.010194
0.010193
0.0101865
0.0107061
0.0106853
0.0106822
0.0106821
0.0106827
0.0106846
0.0106881
0.0106934
0.0107007
0.01071
0.0107217
0.0107357
0.0107519
0.01077
0.0107894
0.0108088
0.0108271
0.0108443
0.0108589
0.0108681
0.0108702
0.0108641
0.0108495
0.0108266
0.0107963
0.01076
0.0107194
0.0106762
0.010632
0.0105884
0.0105467
0.0105076
0.010472
0.01044
0.0104118
0.0103873
0.0103662
0.010348
0.0103325
0.0103193
0.010308
0.0102983
0.0102898
0.0102823
0.0102755
0.0102693
0.0102636
0.0102581
0.0102528
0.0102477
0.0102428
0.010238
0.0102334
0.0102289
0.0102245
0.0102202
0.0102162
0.0102122
0.0102085
0.0102049
0.0102014
0.0101981
0.010195
0.010192
0.0101891
0.0101864
0.0101838
0.0101812
0.0101788
0.0101765
0.0101742
0.010172
0.0101698
0.0101677
0.0101656
0.0101636
0.0101616
0.0101596
0.0101576
0.0101556
0.0101536
0.0101516
0.0101496
0.0101475
0.0101455
0.0101434
0.0101412
0.0101391
0.0101368
0.0101346
0.0101322
0.0101298
0.0101273
0.0101247
0.0101221
0.0101193
0.0101163
0.0101132
0.01011
0.0101066
0.0101029
0.0100991
0.0100949
0.0100905
0.0100857
0.0100805
0.0100749
0.0100688
0.0100622
0.0100551
0.0100474
0.0100392
0.0100305
0.0100217
0.0100131
0.0100055
0.00999983
0.00999754
0.0100003
0.0100095
0.0100252
0.0100458
0.0100687
0.0100906
0.0101102
0.0101274
0.0101423
0.0101548
0.010165
0.0101731
0.0101795
0.0101844
0.010188
0.0101906
0.0101923
0.0101933
0.0101937
0.0101938
0.0101929
0.0101872
0.0106885
0.0106678
0.0106646
0.0106643
0.0106646
0.0106661
0.0106692
0.0106741
0.010681
0.0106901
0.0107016
0.0107156
0.0107321
0.0107508
0.0107708
0.0107911
0.0108101
0.010828
0.010843
0.0108519
0.0108528
0.0108446
0.0108271
0.0108007
0.0107666
0.0107266
0.0106825
0.0106363
0.01059
0.010545
0.0105027
0.010464
0.0104292
0.0103989
0.0103728
0.0103507
0.0103322
0.0103168
0.0103041
0.0102937
0.0102851
0.010278
0.0102719
0.0102667
0.0102621
0.0102578
0.0102537
0.0102498
0.0102459
0.010242
0.0102381
0.0102342
0.0102303
0.0102264
0.0102226
0.0102188
0.0102151
0.0102115
0.010208
0.0102046
0.0102014
0.0101982
0.0101952
0.0101923
0.0101895
0.0101868
0.0101842
0.0101817
0.0101793
0.0101769
0.0101747
0.0101725
0.0101703
0.0101682
0.0101661
0.0101641
0.010162
0.01016
0.010158
0.0101561
0.0101541
0.0101521
0.0101501
0.0101481
0.010146
0.010144
0.0101419
0.0101397
0.0101376
0.0101354
0.0101331
0.0101308
0.0101284
0.0101259
0.0101233
0.0101207
0.0101179
0.0101151
0.010112
0.0101089
0.0101056
0.0101021
0.0100984
0.0100945
0.0100903
0.0100859
0.0100812
0.0100762
0.0100709
0.0100653
0.0100596
0.0100536
0.0100477
0.010042
0.0100371
0.0100333
0.0100314
0.0100323
0.0100368
0.0100455
0.0100583
0.0100741
0.0100913
0.0101083
0.0101239
0.0101376
0.0101494
0.0101595
0.010168
0.010175
0.0101805
0.0101849
0.0101882
0.0101906
0.0101923
0.0101933
0.0101938
0.0101939
0.0101933
0.0101884
0.0106684
0.0106481
0.0106448
0.0106442
0.0106442
0.0106453
0.010648
0.0106524
0.0106588
0.0106675
0.0106788
0.0106928
0.0107096
0.0107288
0.0107496
0.0107708
0.0107906
0.0108092
0.0108246
0.0108329
0.0108323
0.0108215
0.0108005
0.01077
0.0107315
0.0106871
0.0106392
0.0105899
0.0105414
0.0104952
0.0104527
0.0104145
0.0103812
0.0103529
0.0103294
0.0103102
0.0102948
0.0102825
0.010273
0.0102657
0.0102601
0.0102559
0.0102525
0.0102498
0.0102474
0.0102452
0.010243
0.0102407
0.0102383
0.0102357
0.0102329
0.01023
0.0102269
0.0102237
0.0102205
0.0102172
0.0102139
0.0102107
0.0102075
0.0102043
0.0102012
0.0101982
0.0101953
0.0101925
0.0101898
0.0101871
0.0101846
0.0101821
0.0101797
0.0101774
0.0101751
0.0101729
0.0101708
0.0101687
0.0101666
0.0101646
0.0101626
0.0101606
0.0101586
0.0101566
0.0101546
0.0101526
0.0101507
0.0101487
0.0101467
0.0101446
0.0101426
0.0101405
0.0101384
0.0101363
0.0101341
0.0101318
0.0101296
0.0101272
0.0101248
0.0101223
0.0101197
0.0101171
0.0101143
0.0101115
0.0101085
0.0101054
0.0101021
0.0100988
0.0100952
0.0100915
0.0100877
0.0100837
0.0100796
0.0100755
0.0100713
0.0100673
0.0100635
0.0100602
0.0100578
0.0100565
0.0100569
0.0100595
0.0100648
0.0100728
0.0100834
0.0100959
0.0101093
0.0101226
0.0101351
0.0101463
0.010156
0.0101643
0.0101713
0.0101772
0.010182
0.0101859
0.0101889
0.0101911
0.0101927
0.0101937
0.0101942
0.0101945
0.010194
0.0101901
0.010646
0.0106263
0.0106229
0.0106221
0.0106217
0.0106224
0.0106245
0.0106283
0.0106341
0.0106423
0.0106533
0.0106672
0.0106842
0.010704
0.0107256
0.0107478
0.0107684
0.0107878
0.0108034
0.010811
0.0108085
0.0107946
0.0107694
0.010734
0.0106904
0.0106412
0.0105892
0.0105367
0.0104861
0.0104389
0.0103965
0.0103595
0.0103282
0.0103025
0.0102821
0.0102663
0.0102543
0.0102456
0.0102397
0.0102358
0.0102335
0.0102324
0.010232
0.0102319
0.0102319
0.0102319
0.0102316
0.0102311
0.0102302
0.0102289
0.0102273
0.0102254
0.0102232
0.0102208
0.0102182
0.0102154
0.0102126
0.0102097
0.0102068
0.0102039
0.010201
0.0101982
0.0101954
0.0101927
0.01019
0.0101875
0.010185
0.0101826
0.0101802
0.0101779
0.0101756
0.0101735
0.0101713
0.0101692
0.0101671
0.0101651
0.0101631
0.0101611
0.0101591
0.0101572
0.0101552
0.0101533
0.0101513
0.0101493
0.0101474
0.0101454
0.0101434
0.0101414
0.0101393
0.0101373
0.0101352
0.010133
0.0101309
0.0101287
0.0101264
0.0101241
0.0101217
0.0101193
0.0101168
0.0101142
0.0101116
0.0101089
0.0101061
0.0101032
0.0101003
0.0100973
0.0100943
0.0100912
0.0100882
0.0100853
0.0100825
0.0100799
0.0100778
0.0100763
0.0100756
0.010076
0.0100778
0.0100813
0.0100867
0.010094
0.0101029
0.0101131
0.0101238
0.0101345
0.0101445
0.0101537
0.0101618
0.0101688
0.0101747
0.0101797
0.0101839
0.0101873
0.0101899
0.010192
0.0101935
0.0101945
0.0101951
0.0101954
0.0101951
0.0101923
0.0106212
0.0106025
0.0105992
0.0105981
0.0105973
0.0105974
0.0105988
0.0106018
0.0106069
0.0106145
0.010625
0.0106387
0.0106559
0.0106761
0.0106987
0.0107219
0.0107436
0.0107637
0.0107796
0.0107862
0.0107812
0.0107635
0.0107333
0.0106923
0.010643
0.0105886
0.0105321
0.0104765
0.010424
0.0103764
0.0103346
0.0102994
0.0102707
0.0102483
0.0102315
0.0102195
0.0102115
0.0102068
0.0102047
0.0102046
0.0102058
0.010208
0.0102106
0.0102133
0.0102159
0.0102181
0.0102199
0.0102211
0.0102218
0.0102219
0.0102215
0.0102207
0.0102194
0.0102177
0.0102157
0.0102136
0.0102112
0.0102087
0.0102061
0.0102034
0.0102008
0.0101981
0.0101955
0.0101929
0.0101903
0.0101878
0.0101854
0.010183
0.0101807
0.0101784
0.0101762
0.010174
0.0101719
0.0101698
0.0101677
0.0101657
0.0101637
0.0101617
0.0101597
0.0101578
0.0101558
0.0101539
0.010152
0.0101501
0.0101481
0.0101462
0.0101442
0.0101423
0.0101403
0.0101383
0.0101363
0.0101343
0.0101323
0.0101302
0.0101281
0.010126
0.0101238
0.0101216
0.0101194
0.0101171
0.0101148
0.0101125
0.0101102
0.0101078
0.0101055
0.0101031
0.0101008
0.0100986
0.0100965
0.0100945
0.0100928
0.0100915
0.0100906
0.0100904
0.0100909
0.0100924
0.0100951
0.010099
0.0101043
0.0101108
0.0101185
0.010127
0.0101357
0.0101444
0.0101527
0.0101602
0.010167
0.0101729
0.0101781
0.0101824
0.010186
0.0101889
0.0101913
0.0101932
0.0101946
0.0101956
0.0101962
0.0101966
0.0101965
0.0101947
0.0105944
0.0105771
0.0105738
0.0105724
0.0105711
0.0105705
0.0105711
0.0105732
0.0105774
0.0105842
0.010594
0.0106074
0.0106245
0.0106453
0.0106688
0.0106931
0.0107159
0.010737
0.0107529
0.0107583
0.0107505
0.0107282
0.0106922
0.0106447
0.0105891
0.010529
0.0104681
0.0104095
0.0103555
0.0103079
0.0102676
0.0102348
0.0102094
0.010191
0.0101784
0.0101707
0.010167
0.0101666
0.0101687
0.0101725
0.0101775
0.0101831
0.0101889
0.0101945
0.0101996
0.0102042
0.010208
0.010211
0.0102133
0.0102148
0.0102157
0.0102158
0.0102154
0.0102145
0.0102132
0.0102116
0.0102097
0.0102076
0.0102053
0.010203
0.0102005
0.010198
0.0101956
0.0101931
0.0101906
0.0101882
0.0101858
0.0101835
0.0101812
0.0101789
0.0101767
0.0101745
0.0101724
0.0101703
0.0101683
0.0101663
0.0101643
0.0101623
0.0101603
0.0101584
0.0101565
0.0101546
0.0101527
0.0101508
0.0101489
0.010147
0.0101451
0.0101433
0.0101414
0.0101395
0.0101376
0.0101357
0.0101337
0.0101318
0.0101299
0.0101279
0.010126
0.010124
0.0101221
0.0101201
0.0101181
0.0101162
0.0101143
0.0101124
0.0101106
0.0101088
0.0101072
0.0101056
0.0101043
0.0101032
0.0101024
0.010102
0.0101021
0.0101028
0.0101041
0.0101063
0.0101094
0.0101135
0.0101186
0.0101245
0.0101312
0.0101383
0.0101456
0.0101529
0.0101597
0.0101661
0.0101718
0.0101768
0.0101812
0.010185
0.0101881
0.0101908
0.0101929
0.0101946
0.0101959
0.0101969
0.0101976
0.010198
0.0101981
0.0101973
0.0105657
0.0105503
0.0105471
0.0105453
0.0105434
0.0105421
0.0105417
0.0105427
0.0105457
0.0105514
0.0105604
0.0105731
0.0105902
0.0106114
0.0106358
0.0106615
0.0106856
0.0107077
0.0107237
0.0107276
0.0107163
0.0106887
0.0106459
0.0105912
0.0105285
0.0104625
0.0103972
0.010336
0.0102812
0.0102344
0.0101962
0.0101667
0.0101454
0.0101315
0.0101237
0.0101207
0.0101218
0.010126
0.0101325
0.0101405
0.0101493
0.0101584
0.0101673
0.0101758
0.0101835
0.0101904
0.0101962
0.0102011
0.0102049
0.0102078
0.0102098
0.010211
0.0102115
0.0102114
0.0102108
0.0102097
0.0102082
0.0102065
0.0102046
0.0102025
0.0102003
0.010198
0.0101956
0.0101933
0.0101909
0.0101885
0.0101862
0.0101839
0.0101817
0.0101794
0.0101772
0.0101751
0.010173
0.0101709
0.0101689
0.0101669
0.0101649
0.0101629
0.010161
0.0101591
0.0101572
0.0101553
0.0101534
0.0101516
0.0101497
0.0101479
0.0101461
0.0101443
0.0101424
0.0101406
0.0101388
0.010137
0.0101353
0.0101335
0.0101317
0.0101299
0.0101282
0.0101265
0.0101248
0.0101231
0.0101215
0.0101199
0.0101183
0.0101169
0.0101155
0.0101143
0.0101132
0.0101123
0.0101116
0.0101112
0.0101112
0.0101115
0.0101123
0.0101136
0.0101155
0.0101182
0.0101215
0.0101256
0.0101303
0.0101357
0.0101416
0.0101478
0.010154
0.0101601
0.0101659
0.0101713
0.0101761
0.0101805
0.0101843
0.0101875
0.0101903
0.0101927
0.0101946
0.0101962
0.0101975
0.0101984
0.0101991
0.0101996
0.0101999
0.0102002
0.0105356
0.0105224
0.0105193
0.0105171
0.0105146
0.0105124
0.0105108
0.0105106
0.0105122
0.0105165
0.0105243
0.0105363
0.010553
0.0105746
0.0106
0.0106271
0.0106527
0.010676
0.0106922
0.0106944
0.010679
0.0106451
0.0105946
0.0105317
0.0104616
0.0103895
0.01032
0.0102567
0.0102019
0.0101568
0.0101217
0.0100963
0.0100798
0.0100712
0.0100686
0.0100707
0.0100768
0.0100858
0.0100968
0.010109
0.0101217
0.0101343
0.0101464
0.0101577
0.0101679
0.010177
0.0101849
0.0101914
0.0101968
0.010201
0.0102042
0.0102064
0.0102077
0.0102084
0.0102083
0.0102078
0.0102068
0.0102055
0.0102038
0.010202
0.0102
0.0101979
0.0101957
0.0101934
0.0101912
0.0101889
0.0101866
0.0101844
0.0101821
0.0101799
0.0101778
0.0101756
0.0101736
0.0101715
0.0101695
0.0101675
0.0101655
0.0101635
0.0101616
0.0101597
0.0101579
0.010156
0.0101542
0.0101524
0.0101506
0.0101488
0.010147
0.0101453
0.0101435
0.0101418
0.0101401
0.0101384
0.0101368
0.0101351
0.0101335
0.010132
0.0101304
0.0101289
0.0101275
0.0101261
0.0101247
0.0101235
0.0101223
0.0101212
0.0101203
0.0101195
0.010119
0.0101186
0.0101184
0.0101186
0.0101191
0.01012
0.0101213
0.0101231
0.0101254
0.0101283
0.0101317
0.0101357
0.0101402
0.0101451
0.0101503
0.0101557
0.0101611
0.0101663
0.0101713
0.0101759
0.0101801
0.0101839
0.0101872
0.0101901
0.0101926
0.0101947
0.0101965
0.0101979
0.0101991
0.0102001
0.0102009
0.0102014
0.0102019
0.010203
0.0105042
0.0104938
0.0104909
0.0104883
0.0104851
0.0104818
0.010479
0.0104771
0.0104771
0.0104798
0.0104861
0.0104969
0.0105131
0.0105349
0.0105615
0.0105903
0.0106176
0.0106423
0.0106588
0.0106591
0.010639
0.0105978
0.0105386
0.0104667
0.0103886
0.0103105
0.0102373
0.0101728
0.0101188
0.0100764
0.0100454
0.0100251
0.0100144
0.0100112
0.010014
0.0100216
0.010033
0.010047
0.0100626
0.0100789
0.0100954
0.0101114
0.0101266
0.0101406
0.0101532
0.0101644
0.0101741
0.0101823
0.0101891
0.0101946
0.0101989
0.010202
0.0102041
0.0102054
0.010206
0.010206
0.0102054
0.0102044
0.0102031
0.0102015
0.0101997
0.0101978
0.0101957
0.0101936
0.0101914
0.0101892
0.010187
0.0101848
0.0101826
0.0101805
0.0101783
0.0101762
0.0101741
0.0101721
0.0101701
0.0101681
0.0101661
0.0101642
0.0101623
0.0101604
0.0101586
0.0101567
0.0101549
0.0101532
0.0101514
0.0101497
0.010148
0.0101463
0.0101446
0.010143
0.0101414
0.0101398
0.0101383
0.0101368
0.0101354
0.010134
0.0101326
0.0101313
0.0101301
0.0101289
0.0101279
0.0101269
0.0101261
0.0101254
0.0101249
0.0101245
0.0101243
0.0101244
0.0101247
0.0101253
0.0101263
0.0101276
0.0101293
0.0101314
0.010134
0.010137
0.0101404
0.0101443
0.0101485
0.010153
0.0101577
0.0101625
0.0101672
0.0101718
0.0101761
0.0101801
0.0101838
0.0101871
0.01019
0.0101926
0.0101948
0.0101967
0.0101983
0.0101997
0.0102009
0.0102019
0.0102027
0.0102033
0.010204
0.0102059
0.0104722
0.010465
0.0104622
0.0104592
0.0104553
0.0104509
0.0104466
0.010443
0.0104409
0.0104416
0.010446
0.0104554
0.0104707
0.0104927
0.0105204
0.0105511
0.0105806
0.010607
0.0106241
0.0106224
0.0105969
0.0105474
0.0104781
0.0103964
0.0103101
0.0102262
0.0101501
0.0100853
0.0100335
0.00999495
0.00996908
0.00995469
0.00995021
0.0099531
0.00996159
0.00997482
0.0099915
0.0100104
0.0100305
0.0100509
0.010071
0.0100902
0.0101082
0.0101248
0.0101396
0.0101528
0.0101642
0.010174
0.0101821
0.0101887
0.0101939
0.0101979
0.0102008
0.0102028
0.0102039
0.0102043
0.0102041
0.0102035
0.0102024
0.0102011
0.0101995
0.0101977
0.0101958
0.0101938
0.0101917
0.0101896
0.0101874
0.0101853
0.0101831
0.010181
0.0101788
0.0101767
0.0101747
0.0101726
0.0101706
0.0101687
0.0101667
0.0101648
0.0101629
0.0101611
0.0101592
0.0101575
0.0101557
0.010154
0.0101522
0.0101506
0.0101489
0.0101473
0.0101457
0.0101442
0.0101427
0.0101412
0.0101398
0.0101385
0.0101372
0.0101359
0.0101347
0.0101336
0.0101326
0.0101317
0.0101309
0.0101303
0.0101297
0.0101293
0.0101291
0.0101291
0.0101293
0.0101297
0.0101304
0.0101314
0.0101327
0.0101343
0.0101363
0.0101387
0.0101414
0.0101444
0.0101479
0.0101516
0.0101556
0.0101597
0.010164
0.0101683
0.0101725
0.0101765
0.0101804
0.0101839
0.0101872
0.0101901
0.0101927
0.010195
0.010197
0.0101987
0.0102002
0.0102016
0.0102027
0.0102037
0.0102045
0.0102052
0.010206
0.0102088
0.0104399
0.0104364
0.0104339
0.0104305
0.0104258
0.0104202
0.0104142
0.0104086
0.0104042
0.0104024
0.0104046
0.010412
0.0104261
0.010448
0.0104769
0.0105101
0.0105424
0.0105706
0.0105889
0.0105852
0.0105536
0.0104945
0.010414
0.0103216
0.0102269
0.0101377
0.0100597
0.00999594
0.00994752
0.00991409
0.0098944
0.0098867
0.00988878
0.00989798
0.00991243
0.00993133
0.00995324
0.00997687
0.0100012
0.0100254
0.0100489
0.0100711
0.0100917
0.0101105
0.0101274
0.0101424
0.0101553
0.0101664
0.0101757
0.0101833
0.0101895
0.0101942
0.0101978
0.0102003
0.0102019
0.0102028
0.010203
0.0102026
0.0102018
0.0102007
0.0101993
0.0101977
0.0101959
0.010194
0.010192
0.0101899
0.0101878
0.0101857
0.0101836
0.0101814
0.0101793
0.0101773
0.0101752
0.0101732
0.0101712
0.0101692
0.0101673
0.0101654
0.0101635
0.0101617
0.0101599
0.0101581
0.0101564
0.0101547
0.0101531
0.0101514
0.0101498
0.0101483
0.0101468
0.0101453
0.0101439
0.0101426
0.0101413
0.01014
0.0101389
0.0101378
0.0101368
0.0101359
0.0101351
0.0101344
0.0101338
0.0101334
0.0101331
0.010133
0.0101331
0.0101334
0.0101339
0.0101346
0.0101356
0.0101369
0.0101385
0.0101403
0.0101425
0.010145
0.0101478
0.0101509
0.0101543
0.0101579
0.0101616
0.0101655
0.0101694
0.0101733
0.0101771
0.0101807
0.0101841
0.0101873
0.0101902
0.0101928
0.0101952
0.0101973
0.0101991
0.0102007
0.0102021
0.0102034
0.0102045
0.0102055
0.0102064
0.0102071
0.0102081
0.0102115
0.0104079
0.0104084
0.0104064
0.0104026
0.0103971
0.0103903
0.0103825
0.0103746
0.0103676
0.0103629
0.0103623
0.0103672
0.0103796
0.010401
0.0104312
0.0104673
0.0105033
0.0105341
0.0105543
0.0105488
0.0105103
0.0104401
0.010347
0.0102431
0.01014
0.0100463
0.00996757
0.0099063
0.00986274
0.00983568
0.00982319
0.00982295
0.00983166
0.00984697
0.00986757
0.00989208
0.009919
0.00994709
0.00997534
0.010003
0.0100295
0.0100543
0.0100773
0.0100981
0.0101168
0.0101332
0.0101475
0.0101598
0.0101701
0.0101786
0.0101855
0.010191
0.0101951
0.0101981
0.0102002
0.0102014
0.0102019
0.0102019
0.0102013
0.0102004
0.0101991
0.0101976
0.010196
0.0101941
0.0101922
0.0101902
0.0101882
0.0101861
0.010184
0.0101819
0.0101798
0.0101778
0.0101757
0.0101737
0.0101717
0.0101698
0.0101679
0.010166
0.0101641
0.0101623
0.0101606
0.0101588
0.0101571
0.0101555
0.0101538
0.0101523
0.0101507
0.0101493
0.0101478
0.0101464
0.0101451
0.0101439
0.0101427
0.0101416
0.0101405
0.0101396
0.0101387
0.010138
0.0101374
0.0101369
0.0101365
0.0101363
0.0101363
0.0101364
0.0101367
0.0101373
0.010138
0.010139
0.0101403
0.0101418
0.0101436
0.0101456
0.010148
0.0101506
0.0101534
0.0101565
0.0101598
0.0101632
0.0101668
0.0101704
0.0101741
0.0101776
0.0101811
0.0101844
0.0101875
0.0101904
0.010193
0.0101954
0.0101975