/*--------------------------------*- C++ -*----------------------------------*\
| =========                 |                                                 |
| \\      /  F ield         | OpenFOAM: The Open Source CFD Toolbox           |
|  \\    /   O peration     | Version:  2306                                  |
|   \\  /    A nd           | Website:  www.openfoam.com                      |
|    \\/     M anipulation  |                                                 |
\*---------------------------------------------------------------------------*/
FoamFile
{
    version     2.0;
    format      ascii;
    arch        "LSB;label=32;scalar=64";
    class       surfaceScalarField;
    location    "30";
    object      phi;
}
// * * * * * * * * * * * * * * * * * * * * * * * * * * * * * * * * * * * * * //

dimensions      [0 3 -1 0 0 0 0];

oriented        oriented;

internalField   nonuniform List<scalar> 
8788
(
-5.40344e-07
5.40344e-07
-1.26235e-06
7.22005e-07
-2.07814e-06
8.15791e-07
-2.94938e-06
8.71237e-07
-3.83575e-06
8.8637e-07
-4.69652e-06
8.6077e-07
-5.49268e-06
7.9616e-07
-6.18666e-06
6.93983e-07
-6.74176e-06
5.55105e-07
-7.12203e-06
3.80266e-07
-7.29249e-06
1.70458e-07
-7.21959e-06
-7.29e-08
-6.87212e-06
-3.47473e-07
-6.22281e-06
-6.49308e-07
-5.25078e-06
-9.72023e-07
-3.94383e-06
-1.30696e-06
-2.30059e-06
-1.64324e-06
-3.32547e-07
-1.96804e-06
1.93578e-06
-2.26832e-06
4.45784e-06
-2.52207e-06
7.17185e-06
-2.71401e-06
1.00078e-05
-2.83599e-06
1.28915e-05
-2.88362e-06
1.57481e-05
-2.85664e-06
1.8507e-05
-2.75888e-06
2.11046e-05
-2.59761e-06
2.34873e-05
-2.38271e-06
2.5613e-05
-2.12568e-06
2.74517e-05
-1.83873e-06
2.89856e-05
-1.53392e-06
3.02082e-05
-1.22256e-06
3.11229e-05
-9.14713e-07
3.17418e-05
-6.18877e-07
3.20836e-05
-3.41838e-07
3.21721e-05
-8.84558e-08
3.20335e-05
1.38583e-07
3.16954e-05
3.38081e-07
3.11858e-05
5.09545e-07
3.05326e-05
6.53215e-07
2.97627e-05
7.69937e-07
2.89016e-05
8.61082e-07
2.79732e-05
9.28439e-07
2.69991e-05
9.74105e-07
2.59987e-05
1.00037e-06
2.49891e-05
1.00962e-06
2.39848e-05
1.00425e-06
2.29982e-05
9.86601e-07
2.20393e-05
9.58904e-07
2.11161e-05
9.23228e-07
2.02346e-05
8.81458e-07
1.93994e-05
8.35281e-07
1.86132e-05
7.86175e-07
1.78778e-05
7.35412e-07
1.71937e-05
6.84066e-07
1.65607e-05
6.33023e-07
1.59777e-05
5.82998e-07
1.54431e-05
5.34549e-07
1.4955e-05
4.881e-07
1.45111e-05
4.43953e-07
1.41088e-05
4.0231e-07
1.37455e-05
3.63285e-07
1.34186e-05
3.26924e-07
1.31254e-05
2.93215e-07
1.28633e-05
2.62099e-07
1.26298e-05
2.33483e-07
1.24225e-05
2.0725e-07
1.22393e-05
1.83261e-07
1.20779e-05
1.61367e-07
1.19365e-05
1.41411e-07
1.18133e-05
1.23232e-07
1.17066e-05
1.06669e-07
1.1615e-05
9.15632e-08
1.15373e-05
7.7759e-08
1.14722e-05
6.51056e-08
1.14187e-05
5.34572e-08
1.1376e-05
4.26737e-08
1.13434e-05
3.26206e-08
1.13202e-05
2.31686e-08
1.1306e-05
1.41936e-08
1.13005e-05
5.57792e-09
1.13033e-05
-2.7899e-09
1.13143e-05
-1.1026e-08
1.13335e-05
-1.92507e-08
1.13611e-05
-2.75812e-08
1.13973e-05
-3.61398e-08
1.14423e-05
-4.50551e-08
1.14968e-05
-5.44644e-08
1.15613e-05
-6.45164e-08
1.16367e-05
-7.53742e-08
1.17239e-05
-8.72196e-08
1.18241e-05
-1.00257e-07
1.19389e-05
-1.14722e-07
1.20697e-05
-1.30882e-07
1.22188e-05
-1.49052e-07
1.23884e-05
-1.69602e-07
1.25814e-05
-1.92972e-07
1.28011e-05
-2.19687e-07
1.30514e-05
-2.50382e-07
1.33373e-05
-2.85829e-07
1.36642e-05
-3.26978e-07
1.40392e-05
-3.74998e-07
1.44706e-05
-4.31348e-07
1.49684e-05
-4.97857e-07
1.55453e-05
-5.76831e-07
1.62165e-05
-6.71194e-07
1.70011e-05
-7.84662e-07
1.79231e-05
-9.21955e-07
1.90121e-05
-1.08906e-06
2.03056e-05
-1.2935e-06
2.18503e-05
-1.54463e-06
2.3705e-05
-1.85469e-06
2.59507e-05
-2.24572e-06
2.87264e-05
-2.77573e-06
3.23141e-05
-3.58773e-06
3.72712e-05
-4.95702e-06
4.50812e-05
-7.81003e-06
6.30858e-05
-1.80046e-05
0.000125611
-6.25249e-05
6.51858e-05
-0.000162219
9.69519e-06
-0.000214083
-4.76942e-05
-0.000217953
-0.000111985
-0.00016815
-4.73614e-05
-6.46232e-05
-2.86439e-05
-1.87175e-05
-2.07068e-05
-7.93711e-06
-1.58716e-05
-4.83519e-06
-1.25064e-05
-3.36523e-06
-9.97947e-06
-2.52693e-06
-7.97554e-06
-2.00393e-06
-6.34486e-06
-1.63068e-06
-5.00558e-06
-1.33928e-06
-3.90126e-06
-1.10432e-06
-2.98881e-06
-9.12449e-07
-2.235e-06
-7.53814e-07
-1.61449e-06
-6.20501e-07
-1.10837e-06
-5.06128e-07
-7.02585e-07
-4.05782e-07
-3.8605e-07
-3.16535e-07
-1.49467e-07
-2.36583e-07
-1.49467e-07
-7.26519e-07
1.26686e-06
-1.58214e-06
1.57763e-06
-2.55333e-06
1.78698e-06
-3.58382e-06
1.90172e-06
-4.6248e-06
1.92735e-06
-5.63017e-06
1.86614e-06
-6.55456e-06
1.72056e-06
-7.3534e-06
1.49281e-06
-7.9829e-06
1.18461e-06
-8.40027e-06
7.97637e-07
-8.56403e-06
3.34215e-07
-8.4348e-06
-2.02126e-07
-7.97636e-06
-8.05912e-07
-7.15788e-06
-1.46779e-06
-5.95622e-06
-2.17369e-06
-4.35854e-06
-2.90463e-06
-2.36451e-06
-3.63726e-06
1.27989e-08
-4.34536e-06
2.73918e-06
-4.99471e-06
5.75658e-06
-5.53947e-06
8.9943e-06
-5.95172e-06
1.23712e-05
-6.21288e-06
1.58011e-05
-6.31352e-06
1.91979e-05
-6.25339e-06
2.24798e-05
-6.04087e-06
2.55739e-05
-5.69162e-06
2.84179e-05
-5.22676e-06
3.0963e-05
-4.67081e-06
3.3174e-05
-4.04974e-06
3.50294e-05
-3.38928e-06
3.65204e-05
-2.71355e-06
3.76497e-05
-2.04405e-06
3.84299e-05
-1.39903e-06
3.88812e-05
-7.93106e-07
3.90297e-05
-2.36994e-07
3.89055e-05
2.62785e-07
3.85404e-05
7.03202e-07
3.79669e-05
1.08299e-06
3.72177e-05
1.40242e-06
3.63245e-05
1.66315e-06
3.53176e-05
1.86802e-06
3.42253e-05
2.02075e-06
3.30736e-05
2.12578e-06
3.1886e-05
2.18801e-06
3.0683e-05
2.21255e-06
2.94827e-05
2.20459e-06
2.83001e-05
2.16923e-06
2.71476e-05
2.11131e-06
2.60355e-05
2.03538e-06
2.49714e-05
1.9456e-06
2.3961e-05
1.84568e-06
2.30082e-05
1.73893e-06
2.21154e-05
1.62817e-06
2.12837e-05
1.51581e-06
2.05129e-05
1.40384e-06
1.9802e-05
1.29388e-06
1.91494e-05
1.18719e-06
1.85527e-05
1.08475e-06
1.80094e-05
9.87258e-07
1.75165e-05
8.95184e-07
1.7071e-05
8.08808e-07
1.66697e-05
7.2825e-07
1.63094e-05
6.53502e-07
1.5987e-05
5.84451e-07
1.56996e-05
5.20904e-07
1.54443e-05
4.62608e-07
1.52183e-05
4.09269e-07
1.50191e-05
3.60561e-07
1.48443e-05
3.16142e-07
1.46919e-05
2.7566e-07
1.45598e-05
2.38762e-07
1.44463e-05
2.05097e-07
1.43497e-05
1.74324e-07
1.42687e-05
1.46109e-07
1.4202e-05
1.2013e-07
1.41486e-05
9.60769e-08
1.41076e-05
7.3652e-08
1.40782e-05
5.25688e-08
1.40598e-05
3.25522e-08
1.40521e-05
1.33387e-08
1.40546e-05
-5.32292e-09
1.40673e-05
-2.36868e-08
1.409e-05
-4.2015e-08
1.4123e-05
-6.05709e-08
1.41665e-05
-7.9626e-08
1.42209e-05
-9.94656e-08
1.42869e-05
-1.20394e-07
1.43651e-05
-1.4274e-07
1.44566e-05
-1.66866e-07
1.45625e-05
-1.93172e-07
1.46844e-05
-2.22111e-07
1.48239e-05
-2.542e-07
1.4983e-05
-2.90032e-07
1.51643e-05
-3.30301e-07
1.53705e-05
-3.75821e-07
1.56051e-05
-4.27557e-07
1.5872e-05
-4.86668e-07
1.61762e-05
-5.54547e-07
1.65233e-05
-6.32894e-07
1.69201e-05
-7.23793e-07
1.73749e-05
-8.29821e-07
1.78978e-05
-9.54197e-07
1.85009e-05
-1.10097e-06
1.91993e-05
-1.2753e-06
2.0012e-05
-1.4838e-06
2.09624e-05
-1.73509e-06
2.2081e-05
-2.0406e-06
2.34078e-05
-2.4158e-06
2.49967e-05
-2.88244e-06
2.69249e-05
-3.47278e-06
2.93088e-05
-4.23864e-06
3.23363e-05
-5.27325e-06
3.63229e-05
-6.76227e-06
4.18225e-05
-9.0873e-06
4.99065e-05
-1.30411e-05
6.26299e-05
-2.05334e-05
8.14782e-05
-3.68529e-05
9.20605e-05
-7.31072e-05
5.92159e-05
-0.000129374
1.01443e-05
-0.000165011
-4.01162e-05
-0.000167693
-7.44774e-05
-0.000133789
-6.32815e-05
-7.58191e-05
-4.38443e-05
-3.81547e-05
-3.0786e-05
-2.09954e-05
-2.25851e-05
-1.3036e-05
-1.71125e-05
-8.83787e-06
-1.32369e-05
-6.40257e-06
-1.03635e-05
-4.87725e-06
-8.1523e-06
-3.84194e-06
-6.40174e-06
-3.08984e-06
-4.98909e-06
-2.51696e-06
-3.83564e-06
-2.0659e-06
-2.88819e-06
-1.70126e-06
-2.10936e-06
-1.39934e-06
-1.47214e-06
-1.14335e-06
-9.56552e-07
-9.21365e-07
-5.47918e-07
-7.25169e-07
-2.36393e-07
-5.48108e-07
-3.8586e-07
-8.40567e-07
2.10743e-06
-1.83627e-06
2.57333e-06
-2.94011e-06
2.89082e-06
-4.10023e-06
3.06185e-06
-5.26455e-06
3.09167e-06
-6.3822e-06
2.98378e-06
-7.40296e-06
2.74132e-06
-8.27713e-06
2.36699e-06
-8.95569e-06
1.86316e-06
-9.39055e-06
1.2325e-06
-9.5352e-06
4.78864e-07
-9.34559e-06
-3.9173e-07
-8.78167e-06
-1.36984e-06
-7.80962e-06
-2.43984e-06
-6.40443e-06
-3.57888e-06
-4.5526e-06
-4.75646e-06
-2.25462e-06
-5.93524e-06
4.72971e-07
-7.07295e-06
3.58828e-06
-8.11002e-06
7.02464e-06
-8.97583e-06
1.07013e-05
-9.62843e-06
1.45274e-05
-1.00389e-05
1.84068e-05
-1.01929e-05
2.22442e-05
-1.00908e-05
2.59497e-05
-9.74637e-06
2.94431e-05
-9.18506e-06
3.26569e-05
-8.4405e-06
3.55376e-05
-7.55156e-06
3.80471e-05
-6.55919e-06
4.01616e-05
-5.50384e-06
4.18715e-05
-4.42337e-06
4.31789e-05
-3.35153e-06
4.40969e-05
-2.31701e-06
4.46467e-05
-1.34286e-06
4.48559e-05
-4.46246e-07
4.47569e-05
3.61792e-07
4.43844e-05
1.0757e-06
4.37742e-05
1.69319e-06
4.29622e-05
2.21442e-06
4.19836e-05
2.64175e-06
4.08722e-05
2.97942e-06
3.96597e-05
3.23321e-06
3.83755e-05
3.41001e-06
3.7046e-05
3.51748e-06
3.56949e-05
3.56371e-06
3.43425e-05
3.55693e-06
3.30065e-05
3.50524e-06
3.17014e-05
3.41643e-06
3.0439e-05
3.2978e-06
2.92285e-05
3.15608e-06
2.80769e-05
2.9973e-06
2.6989e-05
2.82683e-06
2.59679e-05
2.64929e-06
2.5015e-05
2.46865e-06
2.41307e-05
2.2882e-06
2.33139e-05
2.1106e-06
2.25631e-05
1.93799e-06
2.18759e-05
1.77199e-06
2.12494e-05
1.61378e-06
2.06804e-05
1.46418e-06
2.01655e-05
1.32369e-06
1.97012e-05
1.19253e-06
1.9284e-05
1.07072e-06
1.89103e-05
9.58109e-07
1.85768e-05
8.54396e-07
1.82803e-05
7.5919e-07
1.80175e-05
6.72026e-07
1.77857e-05
5.92387e-07
1.75821e-05
5.19723e-07
1.74043e-05
4.53471e-07
1.725e-05
3.93061e-07
1.71171e-05
3.37926e-07
1.7004e-05
2.87513e-07
1.69088e-05
2.4128e-07
1.68302e-05
1.98706e-07
1.6767e-05
1.59286e-07
1.67181e-05
1.22537e-07
1.66827e-05
8.79919e-08
1.666e-05
5.52024e-08
1.66496e-05
2.37371e-08
1.66511e-05
-6.81656e-09
1.66643e-05
-3.687e-08
1.66892e-05
-6.68451e-08
1.67258e-05
-9.71701e-08
1.67744e-05
-1.28287e-07
1.68356e-05
-1.60659e-07
1.691e-05
-1.94778e-07
1.69984e-05
-2.31178e-07
1.7102e-05
-2.7044e-07
1.7222e-05
-3.13213e-07
1.73602e-05
-3.60224e-07
1.75183e-05
-4.123e-07
1.76986e-05
-4.70397e-07
1.79039e-05
-5.3562e-07
1.81374e-05
-6.0927e-07
1.84027e-05
-6.92888e-07
1.87044e-05
-7.88312e-07
1.90476e-05
-8.97761e-07
1.94386e-05
-1.02393e-06
1.98849e-05
-1.17012e-06
2.03955e-05
-1.34041e-06
2.09812e-05
-1.53991e-06
2.16553e-05
-1.77506e-06
2.24341e-05
-2.05409e-06
2.3338e-05
-2.38767e-06
2.43928e-05
-2.78986e-06
2.56318e-05
-3.27964e-06
2.70994e-05
-3.88339e-06
2.88561e-05
-4.63909e-06
3.09873e-05
-5.60404e-06
3.3618e-05
-6.86936e-06
3.69331e-05
-8.58835e-06
4.12015e-05
-1.10307e-05
4.67934e-05
-1.46792e-05
5.41531e-05
-2.04008e-05
6.3414e-05
-2.97943e-05
7.23202e-05
-4.57592e-05
7.11646e-05
-7.19515e-05
4.7733e-05
-0.000105943
1.11723e-05
-0.00012845
-2.61801e-05
-0.00013034
-5.06755e-05
-0.000109293
-5.18934e-05
-7.46012e-05
-4.26539e-05
-4.73942e-05
-3.30384e-05
-3.06108e-05
-2.54252e-05
-2.06493e-05
-1.96956e-05
-1.45674e-05
-1.53866e-05
-1.07116e-05
-1.21014e-05
-8.16241e-06
-9.54704e-06
-6.39633e-06
-7.52067e-06
-5.11621e-06
-5.88606e-06
-4.15157e-06
-4.55128e-06
-3.40068e-06
-3.45302e-06
-2.79952e-06
-2.5466e-06
-2.30575e-06
-1.79975e-06
-1.8902e-06
-1.18858e-06
-1.53254e-06
-6.94972e-07
-1.21878e-06
-3.03897e-07
-9.39184e-07
-6.89757e-07
-9.35358e-07
3.04279e-06
-2.03844e-06
3.6764e-06
-3.25117e-06
4.10356e-06
-4.51727e-06
4.32794e-06
-5.78109e-06
4.35549e-06
-6.98798e-06
4.19067e-06
-8.08386e-06
3.8372e-06
-9.01507e-06
3.29819e-06
-9.7284e-06
2.5765e-06
-1.01716e-05
1.67565e-06
-1.02938e-05
6.01135e-07
-1.00472e-05
-6.38358e-07
-9.38808e-06
-2.02896e-06
-8.27971e-06
-3.54822e-06
-6.69491e-06
-5.16367e-06
-4.61911e-06
-6.83226e-06
-2.05325e-06
-8.50109e-06
9.83586e-07
-1.01098e-05
4.44143e-06
-1.15679e-05
8.24509e-06
-1.27795e-05
1.23041e-05
-1.36874e-05
1.65174e-05
-1.42522e-05
2.07795e-05
-1.44551e-05
2.49866e-05
-1.42978e-05
2.90417e-05
-1.38015e-05
3.28594e-05
-1.30027e-05
3.63682e-05
-1.19493e-05
3.95125e-05
-1.06959e-05
4.2253e-05
-9.2997e-06
4.45659e-05
-7.81671e-06
4.64417e-05
-6.29918e-06
4.78837e-05
-4.79352e-06
4.89058e-05
-3.3391e-06
4.95305e-05
-1.96761e-06
4.97871e-05
-7.02824e-07
4.97094e-05
4.39473e-07
4.93342e-05
1.45089e-06
4.86995e-05
2.32789e-06
4.78436e-05
3.07036e-06
4.68041e-05
3.6813e-06
4.56171e-05
4.16638e-06
4.43169e-05
4.53341e-06
4.29351e-05
4.79183e-06
4.15004e-05
4.95216e-06
4.00385e-05
5.02559e-06
3.85719e-05
5.02355e-06
3.71198e-05
4.95734e-06
3.56984e-05
4.83786e-06
3.43208e-05
4.67538e-06
3.29975e-05
4.47937e-06
3.17364e-05
4.25839e-06
3.05432e-05
4.02006e-06
2.94215e-05
3.771e-06
2.83732e-05
3.51687e-06
2.7399e-05
3.2624e-06
2.64982e-05
3.01147e-06
2.5669e-05
2.76716e-06
2.49092e-05
2.53184e-06
2.42157e-05
2.30728e-06
2.35852e-05
2.09468e-06
2.3014e-05
1.89481e-06
2.24985e-05
1.70804e-06
2.20348e-05
1.53443e-06
2.16191e-05
1.3738e-06
2.12478e-05
1.22576e-06
2.09172e-05
1.08978e-06
2.0624e-05
9.65209e-07
2.03651e-05
8.51332e-07
2.01374e-05
7.47381e-07
1.99383e-05
6.52562e-07
1.97653e-05
5.66071e-07
1.96161e-05
4.87111e-07
1.94887e-05
4.14894e-07
1.93814e-05
3.48657e-07
1.92924e-05
2.87657e-07
1.92205e-05
2.31179e-07
1.91645e-05
1.78535e-07
1.91234e-05
1.29061e-07
1.90965e-05
8.21196e-08
1.90832e-05
3.70943e-08
1.9083e-05
-6.60669e-09
1.90957e-05
-4.95659e-08
1.91212e-05
-9.23769e-08
1.91597e-05
-1.35647e-07
1.92114e-05
-1.80002e-07
1.92768e-05
-2.26096e-07
1.93567e-05
-2.74624e-07
1.94518e-05
-3.26335e-07
1.95634e-05
-3.82047e-07
1.96929e-05
-4.42664e-07
1.98419e-05
-5.09203e-07
2.00124e-05
-5.82816e-07
2.02068e-05
-6.64825e-07
2.0428e-05
-7.56765e-07
2.06791e-05
-8.60428e-07
2.09642e-05
-9.77934e-07
2.12876e-05
-1.11181e-06
2.1655e-05
-1.26508e-06
2.20725e-05
-1.44142e-06
2.25477e-05
-1.64533e-06
2.30896e-05
-1.88235e-06
2.37091e-05
-2.15939e-06
2.44192e-05
-2.48516e-06
2.52359e-05
-2.87078e-06
2.61789e-05
-3.33067e-06
2.72729e-05
-3.88385e-06
2.85492e-05
-4.55596e-06
3.00483e-05
-5.38245e-06
3.18229e-05
-6.41378e-06
3.3943e-05
-7.72408e-06
3.64994e-05
-9.42582e-06
3.96055e-05
-1.16944e-05
4.33831e-05
-1.48082e-05
4.7911e-05
-1.92071e-05
5.30793e-05
-2.55691e-05
5.81765e-05
-3.48914e-05
6.08816e-05
-4.84643e-05
5.60512e-05
-6.71212e-05
3.83256e-05
-8.82171e-05
1.21431e-05
-0.000102268
-1.46001e-05
-0.000103597
-3.31511e-05
-9.07423e-05
-3.82635e-05
-6.94888e-05
-3.54612e-05
-5.01966e-05
-3.01198e-05
-3.59522e-05
-2.4697e-05
-2.60721e-05
-1.99647e-05
-1.92998e-05
-1.60512e-05
-1.46251e-05
-1.28742e-05
-1.13394e-05
-1.03e-05
-8.97049e-06
-8.20249e-06
-7.21372e-06
-6.47983e-06
-5.87424e-06
-5.05465e-06
-4.82586e-06
-3.86933e-06
-3.98484e-06
-2.88101e-06
-3.29407e-06
-2.05763e-06
-2.71358e-06
-1.37492e-06
-2.21524e-06
-8.14202e-07
-1.7795e-06
-3.60221e-07
-1.39317e-06
-1.04998e-06
-1.01133e-06
4.05412e-06
-2.19923e-06
4.8643e-06
-3.49978e-06
5.40411e-06
-4.85199e-06
5.68016e-06
-6.19672e-06
5.70022e-06
-7.47609e-06
5.47005e-06
-8.63292e-06
4.99403e-06
-9.61025e-06
4.27552e-06
-1.03514e-05
3.31767e-06
-1.08004e-05
2.12467e-06
-1.09028e-05
7.0346e-07
-1.06065e-05
-9.34564e-07
-9.86451e-06
-2.771e-06
-8.63648e-06
-4.77625e-06
-6.8925e-06
-6.90766e-06
-4.61621e-06
-9.10855e-06
-1.80836e-06
-1.13089e-05
1.50997e-06
-1.34281e-05
5.28035e-06
-1.53382e-05
9.41859e-06
-1.69177e-05
1.38237e-05
-1.80925e-05
1.83838e-05
-1.88123e-05
2.29832e-05
-1.90545e-05
2.75092e-05
-1.88239e-05
3.18583e-05
-1.81506e-05
3.59405e-05
-1.70848e-05
3.9682e-05
-1.56908e-05
4.30267e-05
-1.40406e-05
4.5936e-05
-1.22091e-05
4.8388e-05
-1.02687e-05
5.03753e-05
-8.28649e-06
5.19035e-05
-6.32178e-06
5.2989e-05
-4.42454e-06
5.36562e-05
-2.63488e-06
5.39364e-05
-9.82926e-07
5.38648e-05
5.11023e-07
5.34799e-05
1.83581e-06
5.28213e-05
2.98652e-06
5.19288e-05
3.96279e-06
5.08418e-05
4.76829e-06
4.95981e-05
5.41013e-06
4.82333e-05
5.89823e-06
4.67805e-05
6.24463e-06
4.52698e-05
6.4628e-06
4.37283e-05
6.56712e-06
4.21796e-05
6.57229e-06
4.0644e-05
6.4929e-06
3.91388e-05
6.34308e-06
3.7678e-05
6.13615e-06
3.62729e-05
5.88445e-06
3.49321e-05
5.5992e-06
3.36619e-05
5.29035e-06
3.24662e-05
4.96664e-06
3.13476e-05
4.63552e-06
3.03067e-05
4.30329e-06
2.93431e-05
3.97509e-06
2.84552e-05
3.65505e-06
2.76406e-05
3.34638e-06
2.68965e-05
3.05144e-06
2.62192e-05
2.77192e-06
2.56052e-05
2.50886e-06
2.50504e-05
2.26282e-06
2.45509e-05
2.03394e-06
2.41027e-05
1.822e-06
2.37019e-05
1.62654e-06
2.33448e-05
1.4469e-06
2.30278e-05
1.28223e-06
2.27475e-05
1.13163e-06
2.25008e-05
9.94089e-07
2.22847e-05
8.68584e-07
2.20967e-05
7.54066e-07
2.19344e-05
6.4949e-07
2.17954e-05
5.53829e-07
2.1678e-05
4.66078e-07
2.15804e-05
3.85266e-07
2.15011e-05
3.10453e-07
2.14389e-05
2.40734e-07
2.13927e-05
1.75239e-07
2.13617e-05
1.13127e-07
2.13452e-05
5.35864e-08
2.13428e-05
-4.16684e-09
2.13541e-05
-6.08955e-08
2.13791e-05
-1.17371e-07
2.14179e-05
-1.74388e-07
2.14706e-05
-2.32765e-07
2.15379e-05
-2.93352e-07
2.16203e-05
-3.57052e-07
2.17188e-05
-4.24834e-07
2.18345e-05
-4.97753e-07
2.19688e-05
-5.76974e-07
2.21234e-05
-6.63798e-07
2.23003e-05
-7.59697e-07
2.25018e-05
-8.66354e-07
2.27308e-05
-9.85713e-07
2.29904e-05
-1.12004e-06
2.32845e-05
-1.27199e-06
2.36174e-05
-1.44474e-06
2.39944e-05
-1.64206e-06
2.44215e-05
-1.86852e-06
2.49058e-05
-2.12966e-06
2.54558e-05
-2.43231e-06
2.60813e-05
-2.78491e-06
2.67942e-05
-3.19806e-06
2.76086e-05
-3.68521e-06
2.85416e-05
-4.26366e-06
2.96138e-05
-4.95602e-06
3.08502e-05
-5.79236e-06
3.22811e-05
-6.81342e-06
3.3943e-05
-8.07561e-06
3.58773e-05
-9.65841e-06
3.81273e-05
-1.16758e-05
4.07252e-05
-1.42924e-05
4.36623e-05
-1.77453e-05
4.68224e-05
-2.23672e-05
4.9851e-05
-2.85977e-05
5.19117e-05
-3.69522e-05
5.13103e-05
-4.78629e-05
4.53252e-05
-6.11361e-05
3.17426e-05
-7.46344e-05
1.29857e-05
-8.35109e-05
-6.17113e-06
-8.44404e-05
-2.03689e-05
-7.65445e-05
-2.66895e-05
-6.31681e-05
-2.73403e-05
-4.95458e-05
-2.51558e-05
-3.81367e-05
-2.19303e-05
-2.92976e-05
-1.8566e-05
-2.2664e-05
-1.54534e-05
-1.77377e-05
-1.27229e-05
-1.40699e-05
-1.03846e-05
-1.13088e-05
-8.40156e-06
-9.19678e-06
-6.72422e-06
-7.55159e-06
-5.30503e-06
-6.24504e-06
-4.1032e-06
-5.18667e-06
-3.0854e-06
-4.31188e-06
-2.225e-06
-3.57398e-06
-1.50107e-06
-2.93918e-06
-8.97193e-07
-2.38337e-06
-4.00291e-07
-1.89007e-06
-1.45027e-06
-1.06991e-06
5.12403e-06
-2.32499e-06
6.11938e-06
-3.69601e-06
6.77514e-06
-5.11823e-06
7.10237e-06
-6.52955e-06
7.11154e-06
-7.86952e-06
6.81002e-06
-9.07834e-06
6.20285e-06
-1.00963e-05
5.29347e-06
-1.08636e-05
4.08496e-06
-1.13207e-05
2.58181e-06
-1.14093e-05
7.92079e-07
-1.10735e-05
-1.27041e-06
-1.02616e-05
-3.58287e-06
-8.92938e-06
-6.10849e-06
-7.04309e-06
-8.79395e-06
-4.58372e-06
-1.15679e-05
-1.5511e-06
-1.43416e-05
2.03209e-06
-1.70113e-05
6.09841e-06
-1.94046e-05
1.05537e-05
-2.1373e-05
1.52848e-05
-2.28237e-05
2.01675e-05
-2.3695e-05
2.50743e-05
-2.39613e-05
2.98831e-05
-2.36326e-05
3.44833e-05
-2.27509e-05
3.87811e-05
-2.13826e-05
4.27014e-05
-1.96111e-05
4.61894e-05
-1.75286e-05
4.92092e-05
-1.52288e-05
5.17423e-05
-1.28018e-05
5.37858e-05
-1.03299e-05
5.53492e-05
-7.88519e-06
5.64525e-05
-5.52785e-06
5.71236e-05
-3.30593e-06
5.73959e-05
-1.25528e-06
5.7307e-05
5.99968e-07
5.68965e-05
2.24628e-06
5.62055e-05
3.67752e-06
5.52751e-05
4.89319e-06
5.41456e-05
5.89778e-06
5.28557e-05
6.70003e-06
5.14419e-05
7.31209e-06
4.99378e-05
7.74869e-06
4.83743e-05
8.02635e-06
4.67787e-05
8.16267e-06
4.51753e-05
8.17569e-06
4.35849e-05
8.08333e-06
4.2025e-05
7.90294e-06
4.05102e-05
7.65096e-06
3.9052e-05
7.34262e-06
3.76595e-05
6.99179e-06
3.6339e-05
6.61084e-06
3.5095e-05
6.21063e-06
3.393e-05
5.80048e-06
3.28451e-05
5.38826e-06
3.18397e-05
4.98045e-06
3.09125e-05
4.58226e-06
3.00611e-05
4.19775e-06
2.92826e-05
3.82996e-06
2.85735e-05
3.48104e-06
2.79299e-05
3.15239e-06
2.7348e-05
2.84475e-06
2.68236e-05
2.55834e-06
2.63527e-05
2.29295e-06
2.59312e-05
2.04805e-06
2.55552e-05
1.82282e-06
2.52212e-05
1.61627e-06
2.49256e-05
1.42727e-06
2.46651e-05
1.25459e-06
2.44367e-05
1.09697e-06
2.42376e-05
9.53103e-07
2.40654e-05
8.21697e-07
2.39178e-05
7.01476e-07
2.37927e-05
5.91191e-07
2.36883e-05
4.89632e-07
2.36031e-05
3.95629e-07
2.35358e-05
3.08055e-07
2.34852e-05
2.25823e-07
2.34505e-05
1.47886e-07
2.34308e-05
7.32321e-08
2.34258e-05
8.7496e-10
2.3435e-05
-7.01323e-08
2.34584e-05
-1.40741e-07
2.34959e-05
-2.11937e-07
2.35479e-05
-2.8473e-07
2.36147e-05
-3.60169e-07
2.3697e-05
-4.39361e-07
2.37957e-05
-5.2349e-07
2.39118e-05
-6.13843e-07
2.40466e-05
-7.11832e-07
2.42019e-05
-8.19031e-07
2.43794e-05
-9.37211e-07
2.45814e-05
-1.06839e-06
2.48106e-05
-1.21488e-06
2.50699e-05
-1.37938e-06
2.53629e-05
-1.56502e-06
2.56937e-05
-1.77552e-06
2.6067e-05
-2.0153e-06
2.64881e-05
-2.28964e-06
2.69634e-05
-2.60495e-06
2.75001e-05
-2.96902e-06
2.81066e-05
-3.39145e-06
2.87927e-05
-3.88415e-06
2.95696e-05
-4.46209e-06
3.04502e-05
-5.14425e-06
3.14492e-05
-5.95505e-06
3.25831e-05
-6.92626e-06
3.38695e-05
-8.09979e-06
3.53254e-05
-9.53151e-06
3.69636e-05
-1.12966e-05
3.87843e-05
-1.34964e-05
4.07587e-05
-1.62668e-05
4.27982e-05
-1.97849e-05
4.47016e-05
-2.42706e-05
4.60712e-05
-2.99673e-05
4.62006e-05
-3.70816e-05
4.39724e-05
-4.56346e-05
3.79763e-05
-5.514e-05
2.74149e-05
-6.4073e-05
1.37227e-05
-6.98188e-05
-2.58033e-07
-7.04597e-05
-1.12712e-05
-6.55313e-05
-1.75868e-05
-5.68525e-05
-1.99383e-05
-4.71943e-05
-1.97747e-05
-3.83004e-05
-1.82743e-05
-3.0798e-05
-1.61975e-05
-2.47409e-05
-1.39799e-05
-1.99553e-05
-1.18455e-05
-1.62044e-05
-9.89304e-06
-1.32612e-05
-8.15416e-06
-1.09357e-05
-6.62749e-06
-9.07826e-06
-5.29758e-06
-7.57496e-06
-4.1445e-06
-6.33974e-06
-3.14844e-06
-5.30794e-06
-2.2916e-06
-4.43082e-06
-1.559e-06
-3.67178e-06
-9.38619e-07
-3.00376e-06
-4.21098e-07
-2.40759e-06
-1.87137e-06
-1.11402e-06
6.23805e-06
-2.42087e-06
7.42623e-06
-3.84733e-06
8.20159e-06
-5.32585e-06
8.58089e-06
-6.79217e-06
8.57785e-06
-8.18382e-06
8.20166e-06
-9.43888e-06
7.45791e-06
-1.04952e-05
6.34977e-06
-1.129e-05
4.87975e-06
-1.17602e-05
3.05206e-06
-1.18434e-05
8.75308e-07
-1.14791e-05
-1.6348e-06
-1.06104e-05
-4.4515e-06
-9.188e-06
-7.53091e-06
-7.17328e-06
-1.08087e-05
-4.54346e-06
-1.41977e-05
-1.29666e-06
-1.75884e-05
2.54315e-06
-2.08511e-05
6.8987e-06
-2.37601e-05
1.16641e-05
-2.61384e-05
1.67123e-05
-2.78719e-05
2.19041e-05
-2.88868e-05
2.70986e-05
-2.91558e-05
3.21627e-05
-2.86967e-05
3.69787e-05
-2.75668e-05
4.14491e-05
-2.5853e-05
4.54992e-05
-2.36612e-05
4.90766e-05
-2.11061e-05
5.21503e-05
-1.83024e-05
5.47074e-05
-1.5359e-05
5.67512e-05
-1.23737e-05
5.8297e-05
-9.43101e-06
5.93701e-05
-6.60092e-06
6.00026e-05
-3.93846e-06
6.02315e-05
-1.48421e-06
6.00966e-05
7.34902e-07
5.96392e-05
2.70365e-06
5.89017e-05
4.41502e-06
5.79262e-05
5.86875e-06
5.67535e-05
7.0705e-06
5.54226e-05
8.0309e-06
5.39701e-05
8.76456e-06
5.24297e-05
9.28909e-06
5.08319e-05
9.62414e-06
4.9204e-05
9.7906e-06
4.75698e-05
9.80986e-06
4.595e-05
9.70314e-06
4.43619e-05
9.49101e-06
4.28199e-05
9.19295e-06
4.13355e-05
8.82705e-06
3.99175e-05
8.4098e-06
3.85724e-05
7.95593e-06
3.73046e-05
7.4784e-06
3.61167e-05
6.98837e-06
3.50097e-05
6.49528e-06
3.39832e-05
6.00694e-06
3.30358e-05
5.52962e-06
3.21653e-05
5.06827e-06
3.13687e-05
4.62659e-06
3.06425e-05
4.20723e-06
2.9983e-05
3.81192e-06
2.93861e-05
3.44161e-06
2.88478e-05
3.09662e-06
2.8364e-05
2.77677e-06
2.79306e-05
2.48142e-06
2.75438e-05
2.20967e-06
2.71997e-05
1.96033e-06
2.68949e-05
1.73208e-06
2.66261e-05
1.52347e-06
2.639e-05
1.33298e-06
2.61841e-05
1.15907e-06
2.60056e-05
1.0002e-06
2.58522e-05
8.54837e-07
2.57219e-05
7.21487e-07
2.56128e-05
5.98701e-07
2.55234e-05
4.85077e-07
2.54522e-05
3.79263e-07
2.5398e-05
2.79958e-07
2.536e-05
1.85905e-07
2.53374e-05
9.5888e-08
2.53295e-05
8.7278e-09
2.53361e-05
-7.67148e-08
2.53569e-05
-1.61576e-07
2.5392e-05
-2.47025e-07
2.54416e-05
-3.34256e-07
2.55059e-05
-4.24511e-07
2.55856e-05
-5.19091e-07
2.56815e-05
-6.19388e-07
2.57946e-05
-7.26901e-07
2.5926e-05
-8.43275e-07
2.60773e-05
-9.70327e-07
2.62502e-05
-1.1101e-06
2.64467e-05
-1.26489e-06
2.66692e-05
-1.43736e-06
2.69203e-05
-1.63053e-06
2.72033e-05
-1.84794e-06
2.75215e-05
-2.09375e-06
2.7879e-05
-2.37285e-06
2.82804e-05
-2.69106e-06
2.87309e-05
-3.05538e-06
2.92361e-05
-3.47423e-06
2.98025e-05
-3.95788e-06
3.04373e-05
-4.51893e-06
3.11481e-05
-5.17294e-06
3.19432e-05
-5.93936e-06
3.28308e-05
-6.84263e-06
3.38183e-05
-7.91377e-06
3.49108e-05
-9.19233e-06
3.61083e-05
-1.0729e-05
3.74002e-05
-1.25884e-05
3.87564e-05
-1.48526e-05
4.01123e-05
-1.76227e-05
4.13452e-05
-2.10178e-05
4.22394e-05
-2.51648e-05
4.2444e-05
-3.01719e-05
4.14341e-05
-3.60717e-05
3.85164e-05
-4.27169e-05
3.29865e-05
-4.96101e-05
2.46257e-05
-5.57121e-05
1.43496e-05
-5.95427e-05
3.88932e-06
-5.99994e-05
-4.78685e-06
-5.68551e-05
-1.05996e-05
-5.10398e-05
-1.36696e-05
-4.41243e-05
-1.47015e-05
-3.72685e-05
-1.44215e-05
-3.10779e-05
-1.33927e-05
-2.57696e-05
-1.19987e-05
-2.13493e-05
-1.04786e-05
-1.77245e-05
-8.96987e-06
-1.47699e-05
-7.54496e-06
-1.23606e-05
-6.23703e-06
-1.03862e-05
-5.05723e-06
-8.75475e-06
-4.00514e-06
-7.39184e-06
-3.07485e-06
-6.23823e-06
-2.25851e-06
-5.24715e-06
-1.54837e-06
-4.38192e-06
-9.37935e-07
-3.61419e-06
-4.22464e-07
-2.92306e-06
-2.29383e-06
-1.14563e-06
7.38369e-06
-2.49014e-06
8.77074e-06
-3.9581e-06
9.66955e-06
-5.48031e-06
1.01031e-05
-6.99116e-06
1.00887e-05
-8.42681e-06
9.63732e-06
-9.72371e-06
8.75481e-06
-1.08175e-05
7.44356e-06
-1.16426e-05
5.70481e-06
-1.21321e-05
3.54165e-06
-1.22192e-05
9.62359e-07
-1.18378e-05
-2.01622e-06
-1.09252e-05
-5.36404e-06
-9.42563e-06
-9.03051e-06
-7.29434e-06
-1.294e-05
-4.50362e-06
-1.69885e-05
-1.04892e-06
-2.10431e-05
3.04471e-06
-2.49447e-05
7.68903e-06
-2.84044e-05
1.27645e-05
-3.12139e-05
1.81274e-05
-3.32347e-05
2.36209e-05
-3.43803e-05
2.90883e-05
-3.46232e-05
3.43843e-05
-3.39927e-05
3.93835e-05
-3.25661e-05
4.39858e-05
-3.04553e-05
4.81175e-05
-2.7793e-05
5.17312e-05
-2.47198e-05
5.48025e-05
-2.13737e-05
5.73265e-05
-1.78831e-05
5.93145e-05
-1.43616e-05
6.07895e-05
-1.0906e-05
6.17834e-05
-7.59481e-06
6.23339e-05
-4.48893e-06
6.2482e-05
-1.6324e-06
6.22705e-05
9.4648e-07
6.17425e-05
3.23162e-06
6.09418e-05
5.21573e-06
5.99111e-05
6.89939e-06
5.86917e-05
8.28992e-06
5.73223e-05
9.4003e-06
5.58389e-05
1.02479e-05
5.42745e-05
1.08535e-05
5.26586e-05
1.124e-05
5.10176e-05
1.14316e-05
4.93743e-05
1.14531e-05
4.77486e-05
1.13289e-05
4.61569e-05
1.10827e-05
4.4613e-05
1.07369e-05
4.31277e-05
1.03124e-05
4.17093e-05
9.82812e-06
4.03642e-05
9.30111e-06
3.90963e-05
8.74629e-06
3.79081e-05
8.17659e-06
3.68004e-05
7.60295e-06
3.57729e-05
7.03443e-06
3.48242e-05
6.47838e-06
3.39519e-05
5.94055e-06
3.31532e-05
5.4253e-06
3.24246e-05
4.93577e-06
3.17625e-05
4.47402e-06
3.11629e-05
4.04122e-06
3.06218e-05
3.63778e-06
3.0135e-05
3.26352e-06
2.96987e-05
2.91777e-06
2.93088e-05
2.59949e-06
2.89618e-05
2.30734e-06
2.86541e-05
2.0398e-06
2.83824e-05
1.79519e-06
2.81436e-05
1.57178e-06
2.79349e-05
1.36776e-06
2.77537e-05
1.18136e-06
2.75978e-05
1.0108e-06
2.74649e-05
8.54341e-07
2.73533e-05
7.10299e-07
2.72614e-05
5.77042e-07
2.71876e-05
4.52999e-07
2.71309e-05
3.36655e-07
2.70903e-05
2.26548e-07
2.70649e-05
1.21265e-07
2.70542e-05
1.94362e-08
2.70578e-05
-8.02678e-08
2.70753e-05
-1.79165e-07
2.71069e-05
-2.78597e-07
2.71526e-05
-3.79936e-07
2.72127e-05
-4.84603e-07
2.72877e-05
-5.94081e-07
2.73782e-05
-7.09949e-07
2.74852e-05
-8.339e-07
2.76097e-05
-9.67781e-07
2.7753e-05
-1.11362e-06
2.79166e-05
-1.2737e-06
2.81023e-05
-1.45054e-06
2.8312e-05
-1.64706e-06
2.8548e-05
-1.86657e-06
2.8813e-05
-2.11289e-06
2.91097e-05
-2.39049e-06
2.94415e-05
-2.70457e-06
2.98117e-05
-3.06128e-06
3.02242e-05
-3.46792e-06
3.06832e-05
-3.93319e-06
3.11929e-05
-4.46756e-06
3.17576e-05
-5.08367e-06
3.23816e-05
-5.79689e-06
3.30682e-05
-6.62599e-06
3.38196e-05
-7.59405e-06
3.46353e-05
-8.72941e-06
3.55099e-05
-1.0067e-05
3.64305e-05
-1.16496e-05
3.73708e-05
-1.35287e-05
3.82838e-05
-1.57656e-05
3.90899e-05
-1.84288e-05
3.96616e-05
-2.15895e-05
3.9805e-05
-2.53081e-05
3.92425e-05
-2.96094e-05
3.76109e-05
-3.44401e-05
3.44982e-05
-3.96043e-05
2.95705e-05
-4.46823e-05
2.28336e-05
-4.89753e-05
1.49043e-05
-5.16134e-05
6.8607e-06
-5.19559e-05
-1.14668e-07
-4.98798e-05
-5.27467e-06
-4.58798e-05
-8.53757e-06
-4.08614e-05
-1.02203e-05
-3.55857e-05
-1.07472e-05
-3.0551e-05
-1.05051e-05
-2.60118e-05
-9.79609e-06
-2.20584e-05
-8.83514e-06
-1.86855e-05
-7.76512e-06
-1.58399e-05
-6.67565e-06
-1.345e-05
-5.61986e-06
-1.1442e-05
-4.62716e-06
-9.74744e-06
-3.71231e-06
-8.30669e-06
-2.88141e-06
-7.06914e-06
-2.13588e-06
-5.99268e-06
-1.47519e-06
-5.04261e-06
-8.98538e-07
-4.19084e-06
-4.06015e-07
-3.41558e-06
-2.69984e-06
-1.16532e-06
8.54901e-06
-2.53375e-06
1.01392e-05
-4.02935e-06
1.11651e-05
-5.58255e-06
1.16563e-05
-7.12734e-06
1.16335e-05
-8.59924e-06
1.11092e-05
-9.93359e-06
1.00892e-05
-1.10641e-05
8.57412e-06
-1.19225e-05
6.56313e-06
-1.24379e-05
4.05709e-06
-1.25383e-05
1.06278e-06
-1.21517e-05
-2.40288e-06
-1.12082e-05
-6.30751e-06
-9.64427e-06
-1.05944e-05
-7.40772e-06
-1.51765e-05
-4.46444e-06
-1.99317e-05
-8.06233e-07
-2.47013e-05
3.54106e-06
-2.9292e-05
8.4769e-06
-3.33403e-05
1.38658e-05
-3.66028e-05
1.95441e-05
-3.8913e-05
2.53343e-05
-4.01706e-05
3.10613e-05
-4.03502e-05
3.65661e-05
-3.94975e-05
4.17154e-05
-3.77154e-05
4.64072e-05
-3.51471e-05
5.05711e-05
-3.19569e-05
5.41665e-05
-2.83151e-05
5.71781e-05
-2.43853e-05
5.96113e-05
-2.03163e-05
6.14873e-05
-1.62377e-05
6.28386e-05
-1.22573e-05
6.3705e-05
-8.46118e-06
6.41306e-05
-4.91456e-06
6.41614e-05
-1.66321e-06
6.38431e-05
1.2648e-06
6.32213e-05
3.85348e-06
6.23409e-05
6.09611e-06
6.12454e-05
7.99489e-06
5.99757e-05
9.55958e-06
5.857e-05
1.08061e-05
5.7063e-05
1.17549e-05
5.54862e-05
1.24303e-05
5.38677e-05
1.28586e-05
5.2232e-05
1.30673e-05
5.06005e-05
1.30846e-05
4.89913e-05
1.2938e-05
4.74197e-05
1.26543e-05
4.5898e-05
1.22585e-05
4.44362e-05
1.17742e-05
4.30418e-05
1.12225e-05
4.17202e-05
1.06227e-05
4.04751e-05
9.99138e-06
3.93085e-05
9.34319e-06
3.82211e-05
8.69042e-06
3.72122e-05
8.04332e-06
3.62804e-05
7.41017e-06
3.54234e-05
6.79753e-06
3.46383e-05
6.21035e-06
3.39219e-05
5.65221e-06
3.32704e-05
5.12549e-06
3.26801e-05
4.63154e-06
3.2147e-05
4.1709e-06
3.16671e-05
3.74338e-06
3.12366e-05