/*--------------------------------*- C++ -*----------------------------------*\
| =========                 |                                                 |
| \\      /  F ield         | OpenFOAM: The Open Source CFD Toolbox           |
|  \\    /   O peration     | Version:  2306                                  |
|   \\  /    A nd           | Website:  www.openfoam.com                      |
|    \\/     M anipulation  |                                                 |
\*---------------------------------------------------------------------------*/
FoamFile
{
    version     2.0;
    format      ascii;
    arch        "LSB;label=32;scalar=64";
    class       volVectorField;
    location    "30";
    object      U;
}
// * * * * * * * * * * * * * * * * * * * * * * * * * * * * * * * * * * * * * //

dimensions      [0 1 -1 0 0 0 0];

internalField   nonuniform List<vector> 
4480
(
(-0.000160544 0 0.000160056)
(-0.000337253 0 0.000207377)
(-0.000655921 0 0.000232001)
(-0.00100229 0 0.000247897)
(-0.00135815 0 0.00025268)
(-0.00171112 0 0.000245694)
(-0.00204619 0 0.000227457)
(-0.00234789 0 0.000198463)
(-0.00260127 0 0.000159001)
(-0.00279179 0 0.000109303)
(-0.0029052 0 4.96593e-05)
(-0.00292777 0 -1.95027e-05)
(-0.00284648 0 -9.75667e-05)
(-0.00264932 0 -0.000183386)
(-0.00232647 0 -0.000275176)
(-0.00187115 0 -0.000370497)
(-0.00128073 0 -0.000466255)
(-0.000557599 0 -0.000558712)
(0.000295054 0 -0.000644055)
(0.00125795 0 -0.00071604)
(0.00231112 0 -0.000770276)
(0.00342792 0 -0.000804542)
(0.00457887 0 -0.000817661)
(0.00573375 0 -0.000809605)
(0.00686319 0 -0.000781491)
(0.00794004 0 -0.000735412)
(0.00894069 0 -0.000674184)
(0.00984589 0 -0.000601077)
(0.0106412 0 -0.000519554)
(0.011317 0 -0.000433039)
(0.0118686 0 -0.000344733)
(0.0122955 0 -0.000257482)
(0.0126008 0 -0.000173696)
(0.012791 0 -9.52889e-05)
(0.0128746 0 -2.36048e-05)
(0.0128621 0 4.05965e-05)
(0.0127643 0 9.69768e-05)
(0.012592 0 0.000145404)
(0.0123568 0 0.000185959)
(0.0120696 0 0.000218881)
(0.011741 0 0.000244561)
(0.0113808 0 0.000263506)
(0.0109982 0 0.000276311)
(0.0106015 0 0.000283627)
(0.0101979 0 0.000286131)
(0.00979382 0 0.000284504)
(0.00939452 0 0.00027941)
(0.0090045 0 0.000271479)
(0.00862736 0 0.000261301)
(0.00826589 0 0.000249407)
(0.00792216 0 0.000236277)
(0.00759763 0 0.000222329)
(0.00729319 0 0.000207921)
(0.00700927 0 0.000193357)
(0.00674591 0 0.000178888)
(0.00650283 0 0.000164715)
(0.00627949 0 0.000150994)
(0.00607517 0 0.000137845)
(0.005889 0 0.000125352)
(0.00571999 0 0.000113571)
(0.00556713 0 0.000102535)
(0.00542935 0 9.22552e-05)
(0.00530558 0 8.27273e-05)
(0.00519477 0 7.39346e-05)
(0.0050959 0 6.58504e-05)
(0.00500798 0 5.84406e-05)
(0.00493009 0 5.1666e-05)
(0.00486136 0 4.5484e-05)
(0.00480099 0 3.98499e-05)
(0.00474823 0 3.47181e-05)
(0.0047024 0 3.0043e-05)
(0.00466289 0 2.57794e-05)
(0.00462915 0 2.18833e-05)
(0.00460068 0 1.83119e-05)
(0.00457706 0 1.5024e-05)
(0.00455791 0 1.198e-05)
(0.00454292 0 9.14163e-06)
(0.00453182 0 6.47244e-06)
(0.00452439 0 3.93732e-06)
(0.00452046 0 1.50321e-06)
(0.00451992 0 -8.61274e-07)
(0.00452269 0 -3.18959e-06)
(0.00452874 0 -5.51575e-06)
(0.00453809 0 -7.87278e-06)
(0.00455081 0 -1.02953e-05)
(0.00456701 0 -1.28199e-05)
(0.00458685 0 -1.54854e-05)
(0.00461058 0 -1.83341e-05)
(0.00463847 0 -2.14123e-05)
(0.00467088 0 -2.47717e-05)
(0.00470825 0 -2.84705e-05)
(0.00475109 0 -3.25752e-05)
(0.00480003 0 -3.71627e-05)
(0.0048558 0 -4.23224e-05)
(0.00491927 0 -4.81598e-05)
(0.00499149 0 -5.48e-05)
(0.00507366 0 -6.23929e-05)
(0.00516724 0 -7.11195e-05)
(0.00527397 0 -8.12002e-05)
(0.00539592 0 -9.29049e-05)
(0.00553557 0 -0.000106567)
(0.00569593 0 -0.0001226)
(0.00588067 0 -0.000141523)
(0.00609424 0 -0.000163981)
(0.00634215 0 -0.000190789)
(0.0066312 0 -0.000222958)
(0.00696985 0 -0.000261733)
(0.00736866 0 -0.000308611)
(0.00784073 0 -0.000365308)
(0.00840227 0 -0.000433666)
(0.00907396 0 -0.000515928)
(0.00988436 0 -0.000617614)
(0.010869 0 -0.000757776)
(0.0120417 0 -0.000988869)
(0.0134276 0 -0.00145168)
(0.0158485 0 -0.00281441)
(0.0233765 0 -0.00867242)
(0.0373693 0 -0.0316944)
(0.0417777 0 -0.080753)
(0.0186424 0 -0.101528)
(-0.0107945 0 -0.103545)
(-0.0357349 0 -0.0839327)
(-0.0316704 0 -0.0326858)
(-0.0169995 0 -0.00910149)
(-0.0091757 0 -0.00291769)
(-0.00678301 0 -0.00143082)
(-0.00549687 0 -0.000923614)
(-0.00442831 0 -0.000681105)
(-0.00354393 0 -0.000543211)
(-0.00282743 0 -0.000447961)
(-0.00224199 0 -0.00037228)
(-0.00175938 0 -0.000309412)
(-0.00136027 0 -0.000256848)
(-0.0010301 0 -0.000212698)
(-0.000757563 0 -0.000175201)
(-0.000534051 0 -0.000142777)
(-0.000352846 0 -0.000114154)
(-0.000207968 0 -8.87235e-05)
(-9.64503e-05 0 -6.65542e-05)
(-4.31615e-05 0 -4.33977e-05)
(-0.000209338 0 0.000337104)
(-0.000431218 0 0.000428433)
(-0.000814656 0 0.000487303)
(-0.00122457 0 0.000520105)
(-0.00164343 0 0.000528342)
(-0.00205692 0 0.000512594)
(-0.00244731 0 0.000473685)
(-0.00279635 0 0.000412332)
(-0.0030863 0 0.000329039)
(-0.00329982 0 0.000224266)
(-0.00341998 0 9.86224e-05)
(-0.00343057 0 -4.69764e-05)
(-0.00331631 0 -0.000211172)
(-0.00306351 0 -0.0003915)
(-0.00266115 0 -0.000584155)
(-0.0021018 0 -0.000783969)
(-0.00138296 0 -0.000984518)
(-0.00050768 0 -0.00117852)
(0.0005202 0 -0.00135719)
(0.00167435 0 -0.00150747)
(0.00293269 0 -0.00162125)
(0.0042638 0 -0.00169343)
(0.00563355 0 -0.00172138)
(0.00700701 0 -0.00170498)
(0.00835027 0 -0.00164654)
(0.00963204 0 -0.00155039)
(0.0108251 0 -0.00142239)
(0.0119071 0 -0.00126938)
(0.0128611 0 -0.00109857)
(0.013676 0 -0.000917121)
(0.0143456 0 -0.000731732)
(0.014869 0 -0.000548356)
(0.0152494 0 -0.00037203)
(0.0154935 0 -0.000206766)
(0.0156106 0 -5.54698e-05)
(0.0156125 0 8.01817e-05)
(0.0155116 0 0.000199482)
(0.0153207 0 0.000302129)
(0.015053 0 0.000388239)
(0.0147214 0 0.0004583)
(0.0143385 0 0.000513115)
(0.0139159 0 0.000553734)
(0.0134646 0 0.000581394)
(0.0129946 0 0.000597448)
(0.0125145 0 0.000603311)
(0.0120322 0 0.000600409)
(0.0115542 0 0.000590133)
(0.0110861 0 0.000573811)
(0.0106323 0 0.00055268)
(0.0101963 0 0.000527867)
(0.00978095 0 0.000500382)
(0.009388 0 0.000471112)
(0.00901873 0 0.000440821)
(0.00867378 0 0.000410154)
(0.00835332 0 0.000379646)
(0.00805711 0 0.000349726)
(0.00778461 0 0.000320734)
(0.00753499 0 0.000292924)
(0.00730728 0 0.000266482)
(0.00710034 0 0.00024153)
(0.00691297 0 0.000218139)
(0.00674392 0 0.000196338)
(0.0065919 0 0.000176121)
(0.00645568 0 0.000157454)
(0.00633402 0 0.000140284)
(0.00622574 0 0.00012454)
(0.00612972 0 0.00011014)
(0.00604493 0 9.69957e-05)
(0.00597037 0 8.50125e-05)
(0.00590514 0 7.40947e-05)
(0.00584842 0 6.41461e-05)
(0.00579946 0 5.50716e-05)
(0.00575759 0 4.67781e-05)
(0.00572221 0 3.91752e-05)
(0.00569279 0 3.21756e-05)
(0.00566887 0 2.56953e-05)
(0.00565006 0 1.96537e-05)
(0.00563604 0 1.39732e-05)
(0.00562654 0 8.57936e-06)
(0.00562135 0 3.4013e-06)
(0.00562033 0 -1.62846e-06)
(0.00562338 0 -6.57908e-06)
(0.00563046 0 -1.1522e-05)
(0.00564159 0 -1.65283e-05)
(0.00565685 0 -2.16713e-05)
(0.00567638 0 -2.70285e-05)
(0.00570038 0 -3.26822e-05)
(0.00572913 0 -3.87216e-05)
(0.00576296 0 -4.52449e-05)
(0.00580232 0 -5.2361e-05)
(0.00584773 0 -6.01932e-05)
(0.00589981 0 -6.88816e-05)
(0.00595932 0 -7.85884e-05)
(0.00602714 0 -8.95022e-05)
(0.00610432 0 -0.000101845)
(0.00619212 0 -0.000115881)
(0.006292 0 -0.000131926)
(0.00640572 0 -0.000150361)
(0.00653535 0 -0.00017165)
(0.00668339 0 -0.000196364)
(0.00685283 0 -0.000225207)
(0.00704728 0 -0.000259057)
(0.00727115 0 -0.000299019)
(0.00752982 0 -0.000346489)
(0.00782998 0 -0.000403251)
(0.00817999 0 -0.000471596)
(0.00859043 0 -0.0005545)
(0.00907505 0 -0.000655875)
(0.00965205 0 -0.000780986)
(0.0103466 0 -0.000937217)
(0.0111955 0 -0.00113594)
(0.0122573 0 -0.00139803)
(0.0136268 0 -0.00176875)
(0.0154545 0 -0.0023489)
(0.0180242 0 -0.00335684)
(0.022082 0 -0.00539084)
(0.0290177 0 -0.0106422)
(0.0365405 0 -0.0258223)
(0.0332712 0 -0.0581063)
(0.0156676 0 -0.0758174)
(-0.00744394 0 -0.0771962)
(-0.0261259 0 -0.0604322)
(-0.029567 0 -0.0269176)
(-0.0216619 0 -0.0110613)
(-0.0144726 0 -0.00549364)
(-0.0103289 0 -0.00331322)
(-0.00775347 0 -0.00224058)
(-0.00595897 0 -0.00163815)
(-0.00464508 0 -0.00126558)
(-0.00365039 0 -0.00100978)
(-0.00287254 0 -0.000819507)
(-0.00224927 0 -0.000671314)
(-0.00174228 0 -0.000552719)
(-0.00132643 0 -0.000455778)
(-0.000984301 0 -0.000374872)
(-0.000703484 0 -0.000305828)
(-0.000474653 0 -0.00024557)
(-0.000289577 0 -0.000191989)
(-0.000142576 0 -0.00014329)
(-6.61012e-05 0 -9.70748e-05)
(-0.000239856 0 0.000659772)
(-0.000502335 0 0.00081431)
(-0.000942327 0 0.000919077)
(-0.0014057 0 0.000976266)
(-0.00187554 0 0.000987969)
(-0.0023366 0 0.000955389)
(-0.00276924 0 0.000879672)
(-0.00315316 0 0.000761812)
(-0.00346852 0 0.000602629)
(-0.00369587 0 0.000402986)
(-0.0038162 0 0.000164101)
(-0.00381134 0 -0.000112158)
(-0.00366423 0 -0.000422878)
(-0.00335987 0 -0.000763158)
(-0.0028862 0 -0.00112572)
(-0.00223532 0 -0.00150085)
(-0.00140493 0 -0.00187659)
(-0.000398 0 -0.00223952)
(0.000778757 0 -0.00257161)
(0.00209526 0 -0.00284977)
(0.00352618 0 -0.0030601)
(0.00503593 0 -0.00319318)
(0.00658637 0 -0.00324421)
(0.00813874 0 -0.0032131)
(0.0096556 0 -0.00310417)
(0.0111026 0 -0.00292542)
(0.01245 0 -0.00268761)
(0.0136734 0 -0.00240322)
(0.0147545 0 -0.00208545)
(0.015681 0 -0.00174739)
(0.0164464 0 -0.00140131)
(0.0170492 0 -0.00105815)
(0.0174927 0 -0.000727227)
(0.0177839 0 -0.000415996)
(0.0179327 0 -0.00012998)
(0.0179514 0 0.000127364)
(0.0178538 0 0.000354369)
(0.0176538 0 0.000550359)
(0.0173658 0 0.000715436)
(0.0170042 0 0.000850414)
(0.016583 0 0.000956702)
(0.0161151 0 0.00103619)
(0.015613 0 0.00109114)
(0.0150877 0 0.00112402)
(0.0145494 0 0.00113745)
(0.0140068 0 0.0011341)
(0.0134675 0 0.00111655)
(0.012938 0 0.00108731)
(0.0124234 0 0.00104871)
(0.011928 0 0.00100289)
(0.011455 0 0.00095178)
(0.0110067 0 0.000897067)
(0.0105847 0 0.000840222)
(0.0101898 0 0.000782491)
(0.00982236 0 0.000724909)
(0.00948227 0 0.000668315)
(0.00916897 0 0.000613373)
(0.00888163 0 0.000560586)
(0.00861918 0 0.000510323)
(0.0083804 0 0.000462832)
(0.00816397 0 0.000418263)
(0.00796849 0 0.000376681)
(0.00779254 0 0.000338086)
(0.00763471 0 0.000302422)
(0.00749361 0 0.000269591)
(0.00736791 0 0.000239467)
(0.00725634 0 0.000211898)
(0.0071577 0 0.000186717)
(0.00707087 0 0.00016375)
(0.00699483 0 0.000142814)
(0.00692862 0 0.000123729)
(0.00687139 0 0.000106315)
(0.00682236 0 9.0394e-05)
(0.00678084 0 7.57953e-05)
(0.00674622 0 6.23527e-05)
(0.00671797 0 4.99063e-05)
(0.00669565 0 3.83023e-05)
(0.00667886 0 2.73929e-05)
(0.00666731 0 1.7036e-05)
(0.00666074 0 7.09516e-06)
(0.00665899 0 -2.55987e-06)
(0.00666194 0 -1.20599e-05)
(0.00666954 0 -2.15395e-05)
(0.0066818 0 -3.11348e-05)
(0.00669882 0 -4.09861e-05)
(0.00672073 0 -5.12406e-05)
(0.00674777 0 -6.20554e-05)
(0.00678024 0 -7.36e-05)
(0.00681852 0 -8.60607e-05)
(0.0068631 0 -9.96443e-05)
(0.00691456 0 -0.000114584)
(0.0069736 0 -0.000131145)
(0.00704105 0 -0.000149633)
(0.0071179 0 -0.000170405)
(0.00720531 0 -0.000193879)
(0.00730466 0 -0.000220551)
(0.00741759 0 -0.000251016)
(0.00754599 0 -0.00028599)
(0.00769217 0 -0.000326346)
(0.00785884 0 -0.000373152)
(0.00804926 0 -0.000427734)
(0.00826735 0 -0.000491747)
(0.00851788 0 -0.000567277)
(0.00880669 0 -0.000656989)
(0.009141 0 -0.000764326)
(0.00952991 0 -0.000893812)
(0.00998499 0 -0.00105152)
(0.0105214 0 -0.00124583)
(0.0111595 0 -0.0014888)
(0.0119276 0 -0.00179874)
(0.0128662 0 -0.00220529)
(0.0140356 0 -0.00276053)
(0.0155253 0 -0.00356215)
(0.0174623 0 -0.00479798)
(0.0200228 0 -0.00682576)
(0.0234242 0 -0.0103544)
(0.0275567 0 -0.0168927)
(0.030147 0 -0.0290755)
(0.0256363 0 -0.0467142)
(0.0128713 0 -0.057811)
(-0.0038372 0 -0.0587032)
(-0.0173608 0 -0.0482453)
(-0.0220755 0 -0.0301343)
(-0.0193596 0 -0.017481)
(-0.0150495 0 -0.0106117)
(-0.0115166 0 -0.00686915)
(-0.00887795 0 -0.00471551)
(-0.00690703 0 -0.00341471)
(-0.00541731 0 -0.00258518)
(-0.00427104 0 -0.00202198)
(-0.0033701 0 -0.00161696)
(-0.00264831 0 -0.00131216)
(-0.00206161 0 -0.00107457)
(-0.00158006 0 -0.00088393)
(-0.00118278 0 -0.000726943)
(-0.000854956 0 -0.000594449)
(-0.000585427 0 -0.000480036)
(-0.000364139 0 -0.000379304)
(-0.000183428 0 -0.000289051)
(-8.46167e-05 0 -0.000207727)
(-0.000266985 0 0.00102187)
(-0.000558854 0 0.00124107)
(-0.00104456 0 0.0013898)
(-0.00155184 0 0.00146914)
(-0.00206311 0 0.00148122)
(-0.00256227 0 0.0014276)
(-0.00302818 0 0.00130965)
(-0.00343895 0 0.00112856)
(-0.00377311 0 0.000885392)
(-0.0040095 0 0.000581389)
(-0.00412743 0 0.000218429)
(-0.00410706 0 -0.000200555)
(-0.00392983 0 -0.000670924)
(-0.0035794 0 -0.0011851)
(-0.00304268 0 -0.00173209)
(-0.00231115 0 -0.00229727)
(-0.0013826 0 -0.00286273)
(-0.000259114 0 -0.00340815)
(0.00104865 0 -0.00390413)
(0.00250799 0 -0.00431744)
(0.00408982 0 -0.00462832)
(0.00575445 0 -0.00482316)
(0.00745978 0 -0.00489523)
(0.00916341 0 -0.00484487)
(0.0108248 0 -0.00467887)
(0.012407 0 -0.00440945)
(0.0138785 0 -0.00405273)
(0.0152138 0 -0.00362725)
(0.0163939 0 -0.00315252)
(0.0174063 0 -0.00264775)
(0.0182445 0 -0.00213092)
(0.0189073 0 -0.00161803)
(0.0193984 0 -0.0011227)
(0.0197253 0 -0.000655874)
(0.0198985 0 -0.000225753)
(0.0199307 0 0.000162295)
(0.0198366 0 0.00050549)
(0.0196309 0 0.000802683)
(0.019329 0 0.00105389)
(0.0189462 0 0.0012602)
(0.0184974 0 0.00142358)
(0.0179967 0 0.00154676)
(0.0174572 0 0.00163299)
(0.0168912 0 0.0016859)
(0.0163095 0 0.00170934)
(0.0157217 0 0.00170724)
(0.0151361 0 0.00168345)
(0.0145599 0 0.00164172)
(0.013999 0 0.00158553)
(0.0134579 0 0.00151811)
(0.0129403 0 0.00144238)
(0.012449 0 0.0013609)
(0.0119857 0 0.00127592)
(0.0115516 0 0.00118935)
(0.0111471 0 0.00110278)
(0.0107722 0 0.00101751)
(0.0104264 0 0.00093457)
(0.0101089 0 0.000854755)
(0.00981853 0 0.000778647)
(0.00955408 0 0.000706644)
(0.00931413 0 0.000638993)
(0.00909718 0 0.000575813)
(0.00890172 0 0.000517115)
(0.00872621 0 0.00046283)
(0.00856916 0 0.00041282)
(0.00842911 0 0.000366901)
(0.00830468 0 0.000324851)
(0.00819456 0 0.000286422)
(0.00809752 0 0.000251352)
(0.00801243 0 0.000219371)
(0.00793825 0 0.000190205)
(0.00787402 0 0.000163583)
(0.0078189 0 0.000139238)
(0.00777211 0 0.00011691)
(0.007733 0 9.63475e-05)
(0.00770095 0 7.73089e-05)
(0.00767548 0 5.95607e-05)
(0.00765615 0 4.28782e-05)
(0.00764262 0 2.70454e-05)
(0.00763462 0 1.18542e-05)
(0.00763193 0 -2.89496e-06)
(0.00763445 0 -1.73999e-05)
(0.00764209 0 -3.18626e-05)
(0.00765488 0 -4.64893e-05)
(0.00767288 0 -6.14926e-05)
(0.00769625 0 -7.70952e-05)
(0.00772523 0 -9.35337e-05)
(0.00776013 0 -0.000111064)
(0.00780136 0 -0.000129964)
(0.00784942 0 -0.000150546)
(0.00790492 0 -0.000173157)
(0.0079686 0 -0.000198193)
(0.00804134 0 -0.00022611)
(0.00812415 0 -0.000257436)
(0.00821826 0 -0.000292792)
(0.00832509 0 -0.000332911)
(0.00844631 0 -0.000378668)
(0.0085839 0 -0.000431118)
(0.00874018 0 -0.000491541)
(0.00891792 0 -0.000561506)
(0.00912038 0 -0.000642951)
(0.00935151 0 -0.000738297)
(0.00961602 0 -0.000850604)
(0.00991965 0 -0.000983784)
(0.0102695 0 -0.00114292)
(0.0106742 0 -0.00133473)
(0.0111449 0 -0.00156832)
(0.0116956 0 -0.00185637)
(0.0123446 0 -0.00221713)
(0.0131161 0 -0.00267798)
(0.014042 0 -0.00328167)
(0.0151637 0 -0.00409761)
(0.0165308 0 -0.00524175)
(0.0181916 0 -0.00690881)
(0.0201632 0 -0.00941923)
(0.0223483 0 -0.0132848)
(0.0242623 0 -0.0192634)
(0.0243601 0 -0.0280656)
(0.0199886 0 -0.0385323)
(0.0107385 0 -0.0454363)
(-0.000947736 0 -0.046059)
(-0.010752 0 -0.039676)
(-0.0153253 0 -0.0290679)
(-0.0152339 0 -0.0199525)
(-0.0132268 0 -0.0136752)
(-0.0109291 0 -0.00957625)
(-0.0088606 0 -0.00690424)
(-0.00713034 0 -0.00513592)
(-0.0057222 0 -0.00393385)
(-0.00458387 0 -0.00308786)
(-0.00366003 0 -0.0024705)
(-0.00290428 0 -0.00200456)
(-0.002281 0 -0.00164213)
(-0.00176361 0 -0.00135244)
(-0.00133243 0 -0.00111494)
(-0.000972942 0 -0.000915491)
(-0.000673855 0 -0.00074423)
(-0.000424539 0 -0.000594388)
(-0.000216744 0 -0.000461397)
(-0.000100737 0 -0.000343374)
(-0.000289098 0 0.00141329)
(-0.000603669 0 0.00170107)
(-0.00112599 0 0.00189415)
(-0.00166891 0 0.00199435)
(-0.00221389 0 0.0020043)
(-0.00274401 0 0.00192601)
(-0.00323694 0 0.00176109)
(-0.00366947 0 0.00151086)
(-0.00401879 0 0.00117653)
(-0.0042623 0 0.000759694)
(-0.00437779 0 0.000262849)
(-0.00434389 0 -0.000309974)
(-0.0041405 0 -0.000952318)
(-0.00374985 0 -0.00165379)
(-0.00315757 0 -0.00239942)
(-0.00235425 0 -0.00316935)
(-0.00133753 0 -0.00393917)
(-0.000108014 0 -0.00468089)
(0.00131903 0 -0.00535152)
(0.00290879 0 -0.00590764)
(0.00462785 0 -0.00632315)
(0.00643212 0 -0.00658019)
(0.0082752 0 -0.00667034)
(0.0101108 0 -0.00659482)
(0.0118953 0 -0.00636362)
(0.0135895 0 -0.00599382)
(0.0151606 0 -0.00550762)
(0.0165826 0 -0.00493019)
(0.0178364 0 -0.00428775)
(0.0189102 0 -0.00360592)
(0.0197982 0 -0.00290852)
(0.0205004 0 -0.00221669)
(0.0210212 0 -0.0015483)
(0.0213691 0 -0.000917766)
(0.0215553 0 -0.000335899)
(0.0215934 0 0.000190034)
(0.0214984 0 0.0006561)
(0.0212857 0 0.00106061)
(0.0209716 0 0.00140346)
(0.0205718 0 0.00168598)
(0.020102 0 0.00191071)
(0.0195768 0 0.0020812)
(0.0190101 0 0.00220172)
(0.0184146 0 0.00227707)
(0.0178016 0 0.00231236)
(0.0171813 0 0.00231281)
(0.0165626 0 0.00228359)
(0.0159528 0 0.0022297)
(0.0153584 0 0.00215585)
(0.0147842 0 0.0020664)
(0.0142343 0 0.00196529)
(0.0137116 0 0.00185604)
(0.013218 0 0.00174171)
(0.012755 0 0.00162491)
(0.0123231 0 0.00150784)
(0.0119223 0 0.00139231)
(0.0115522 0 0.00127974)
(0.011212 0 0.00117124)
(0.0109006 0 0.00106765)
(0.0106167 0 0.000969528)
(0.0103588 0 0.000877237)
(0.0101254 0 0.000790961)
(0.00991496 0 0.000710736)
(0.00972581 0 0.000636483)
(0.00955639 0 0.000568029)
(0.00940518 0 0.000505133)
(0.0092707 0 0.000447501)
(0.00915156 0 0.000394805)
(0.00904646 0 0.000346693)
(0.00895419 0 0.000302799)
(0.00887363 0 0.000262755)
(0.00880379 0 0.000226192)
(0.00874373 0 0.00019275)
(0.00869264 0 0.000162074)
(0.00864979 0 0.000133823)
(0.00861455 0 0.000107668)
(0.00858637 0 8.32897e-05)
(0.00856479 0 6.03827e-05)
(0.00854943 0 3.86522e-05)
(0.00853998 0 1.78133e-05)
(0.00853623 0 -2.40825e-06)
(0.00853803 0 -2.22809e-05)
(0.0085453 0 -4.2077e-05)
(0.00855803 0 -6.20766e-05)
(0.00857629 0 -8.2568e-05)
(0.00860024 0 -0.000103852)
(0.0086301 0 -0.000126249)
(0.00866618 0 -0.000150101)
(0.0087089 0 -0.000175784)
(0.00875875 0 -0.000203712)
(0.00881635 0 -0.000234349)
(0.00888243 0 -0.000268223)
(0.00895786 0 -0.000305935)
(0.00904366 0 -0.000348185)
(0.00914103 0 -0.000395787)
(0.00925136 0 -0.000449704)
(0.00937628 0 -0.000511079)
(0.00951772 0 -0.000581286)
(0.00967789 0 -0.000661983)
(0.00985942 0 -0.000755199)
(0.0100654 0 -0.00086343)
(0.0102994 0 -0.000989783)
(0.0105658 0 -0.00113817)
(0.0108698 0 -0.00131358)
(0.0112175 0 -0.00152246)
(0.0116163 0 -0.00177331)
(0.0120754 0 -0.00207752)
(0.0126057 0 -0.00245076)
(0.0132206 0 -0.00291507)
(0.0139358 0 -0.00350227)
(0.014769 0 -0.0042593)
(0.0157372 0 -0.00525661)
(0.0168493 0 -0.00660026)
(0.0180891 0 -0.00844723)
(0.0193796 0 -0.0110193)
(0.0205157 0 -0.0146033)
(0.0210266 0 -0.0194943)
(0.0199655 0 -0.0257297)
(0.0160853 0 -0.032316)
(0.00931433 0 -0.0366602)
(0.00113221 0 -0.0370989)
(-0.00603801 0 -0.0331847)
(-0.0100924 0 -0.0266097)
(-0.0112186 0 -0.0201886)
(-0.0106795 0 -0.0150649)
(-0.00946887 0 -0.0112685)
(-0.00809179 0 -0.00852886)
(-0.00677298 0 -0.00656171)
(-0.00559809 0 -0.0051378)
(-0.00458569 0 -0.00408983)
(-0.00372551 0 -0.0033021)
(-0.00299799 0 -0.00269641)
(-0.00238284 0 -0.00221995)
(-0.00186214 0 -0.00183663)
(-0.00142106 0 -0.00152132)
(-0.00104788 0 -0.00125622)
(-0.000732887 0 -0.00102868)
(-0.000466241 0 -0.000829826)
(-0.000240226 0 -0.000653678)
(-0.000112436 0 -0.000497324)
(-0.000306062 0 0.00183067)
(-0.000638463 0 0.00219092)
(-0.00118995 0 0.00242965)
(-0.00176164 0 0.00255027)
(-0.0023342 0 0.00255634)
(-0.00289 0 0.00245048)
(-0.00340572 0 0.00223455)
(-0.00385708 0 0.00190995)
(-0.00422008 0 0.00147797)
(-0.00447081 0 0.000940378)
(-0.00458558 0 0.000300235)
(-0.00454142 0 -0.000437388)
(-0.00431654 0 -0.00126422)
(-0.00389147 0 -0.00216699)
(-0.00325017 0 -0.00312653)
(-0.00238201 0 -0.00411735)
(-0.00128415 0 -0.00510787)
(4.47735e-05 0 -0.00606151)
(0.0015844 0 -0.00691898)
(0.00329791 0 -0.00762642)
(0.00514683 0 -0.00815065)
(0.00708202 0 -0.00846938)
(0.00905216 0 -0.00857281)
(0.0110066 0 -0.00846373)
(0.0128984 0 -0.00815622)
(0.0146862 0 -0.00767329)
(0.0163362 0 -0.00704415)
(0.0178224 0 -0.00630141)
(0.0191267 0 -0.00547859)
(0.0202384 0 -0.00460811)
(0.0211535 0 -0.00371981)
(0.0218735 0 -0.00283993)
(0.0224046 0 -0.00199059)
(0.0227566 0 -0.00118947)
(0.0229418 0 -0.000449838)
(0.0229747 0 0.000219327)
(0.0228709 0 0.000813034)
(0.0226465 0 0.00132905)
(0.0223182 0 0.00176718)
(0.0219023 0 0.00212903)
(0.0214146 0 0.00241774)
(0.0208704 0 0.00263772)
(0.0202835 0 0.0027943)
(0.0196671 0 0.00289347)
(0.0190327 0 0.00294163)
(0.0183906 0 0.0029453)
(0.0177499 0 0.002911)
(0.0171182 0 0.00284503)
(0.016502 0 0.00275332)
(0.0159063 0 0.00264141)
(0.0153354 0 0.00251429)
(0.0147923 0 0.00237645)
(0.014279 0 0.0022318)
(0.0137971 0 0.00208369)
(0.013347 0 0.00193496)
(0.0129291 0 0.00178792)
(0.0125428 0 0.00164444)
(0.0121873 0 0.00150598)
(0.0118617 0 0.00137362)
(0.0115645 0 0.00124811)
(0.0112943 0 0.00112994)
(0.0110497 0 0.00101938)
(0.0108288 0 0.000916484)
(0.0106301 0 0.000821181)
(0.010452 0 0.000733261)
(0.0102929 0 0.000652431)
(0.0101513 0 0.000578325)
(0.0100257 0 0.000510532)
(0.00991478 0 0.000448608)
(0.00981729 0 0.000392093)
(0.00973207 0 0.000340518)
(0.00965806 0 0.000293416)
(0.00959431 0 0.000250325)
(0.00953994 0 0.000210797)
(0.00949421 0 0.000174394)
(0.00945645 0 0.000140696)
(0.00942607 0 0.000109297)
(0.00940259 0 7.98045e-05)
(0.0093856 0 5.18426e-05)
(0.00937478 0 2.50464e-05)
(0.00936988 0 -9.37716e-07)
(0.00937075 0 -2.64513e-05)
(0.00937728 0 -5.18388e-05)
(0.00938945 0 -7.74564e-05)
(0.00940732 0 -0.00010367)
(0.00943102 0 -0.000130859)
(0.00946077 0 -0.000159427)
(0.00949687 0 -0.000189805)
(0.0095397 0 -0.000222463)
(0.00958974 0 -0.000257917)
(0.00964759 0 -0.000296744)
(0.00971393 0 -0.000339596)
(0.0097896 0 -0.000387216)
(0.00987557 0 -0.000440461)
(0.00997295 0 -0.000500327)
(0.010083 0 -0.000567985)
(0.0102074 0 -0.000644817)
(0.0103477 0 -0.000732479)
(0.010506 0 -0.000832957)
(0.0106846 0 -0.000948665)
(0.0108862 0 -0.00108256)
(0.011114 0 -0.0012383)
(0.0113715 0 -0.00142044)
(0.0116629 0 -0.00163475)
(0.0119931 0 -0.00188862)
(0.0123675 0 -0.00219163)
(0.0127925 0 -0.00255642)
(0.0132749 0 -0.0029999)
(0.0138219 0 -0.00354507)
(0.01444 0 -0.00422364)
(0.0151329 0 -0.00507963)
(0.0158972 0 -0.00617411)
(0.0167132 0 -0.00759042)
(0.0175293 0 -0.00943761)
(0.0182353 0 -0.0118464)
(0.0186232 0 -0.0149461)
(0.0183319 0 -0.0187989)
(0.0168087 0 -0.0232345)
(0.0134866 0 -0.0275324)
(0.00843667 0 -0.0303159)
(0.00258073 0 -0.0306217)
(-0.00275008 0 -0.0281906)
(-0.00621698 0 -0.0239784)
(-0.00782436 0 -0.0194512)
(-0.00812773 0 -0.0154341)
(-0.00769999 0 -0.0121594)
(-0.00692751 0 -0.00959577)
(-0.00603753 0 -0.00762496)
(-0.00515195 0 -0.00611662)
(-0.00432846 0 -0.00495677)
(-0.00358879 0 -0.00405548)
(-0.00293649 0 -0.00334526)
(-0.00236685 0 -0.00277655)
(-0.00187213 0 -0.00231317)
(-0.0014441 0 -0.00192862)
(-0.00107528 0 -0.00160336)
(-0.000758785 0 -0.00132303)
(-0.000486581 0 -0.00107722)
(-0.000252356 0 -0.000858721)
(-0.00011867 0 -0.000663373)
(-0.000318729 0 0.00226866)
(-0.000664793 0 0.00270469)
(-0.00123894 0 0.00299052)
(-0.0018335 0 0.00313166)
(-0.00242851 0 0.00313291)
(-0.00300583 0 0.00299757)
(-0.00354137 0 0.00272778)
(-0.00400992 0 0.00232491)
(-0.00438641 0 0.00179014)
(-0.00464565 0 0.00112528)
(-0.0047624 0 0.000333725)
(-0.00471192 0 -0.000578555)
(-0.00447049 0 -0.00160159)
(-0.00401651 0 -0.00271923)
(-0.00333188 0 -0.00390797)
(-0.00240428 0 -0.00513623)
(-0.00123003 0 -0.00636453)
(0.000194664 0 -0.00754659)
(0.00184391 0 -0.00860363)
(0.00367867 0 -0.00947082)
(0.0056545 0 -0.010107)
(0.00771632 0 -0.0104853)
(0.00980701 0 -0.0105947)
(0.011871 0 -0.0104408)
(0.0138575 0 -0.0100428)
(0.0157232 0 -0.00943107)
(0.0174335 0 -0.00864308)
(0.0189631 0 -0.00771986)
(0.0202956 0 -0.00670294)
(0.0214223 0 -0.00563196)
(0.0223417 0 -0.00454292)
(0.0230577 0 -0.00346718)
(0.0235788 0 -0.00243084)
(0.0239166 0 -0.00145462)
(0.0240852 0 -0.000553899)
(0.0241001 0 0.00026098)
(0.0239774 0 0.00098419)
(0.0237343 0 0.00161305)
(0.0233875 0 0.00214736)
(0.0229539 0 0.00258911)
(0.0224494 0 0.00294214)
(0.0218892 0 0.00321177)
(0.0212874 0 0.00340444)
(0.0206568 0 0.00352738)
(0.0200091 0 0.00358828)
(0.0193544 0 0.00359502)
(0.0187017 0 0.00355543)
(0.0180585 0 0.00347711)
(0.0174312 0 0.00336724)
(0.0168249 0 0.00323249)
(0.0162436 0 0.00307895)
(0.0156905 0 0.00291205)
(0.0151675 0 0.00273654)
(0.0146762 0 0.00255655)
(0.0142172 0 0.00237552)
(0.0137906 0 0.00219632)
(0.013396 0 0.00202125)
(0.0130327 0 0.00185211)
(0.0126996 0 0.00169026)
(0.0123954 0 0.00153665)
(0.0121186 0 0.0013919)
(0.0118678 0 0.00125635)
(0.0116412 0 0.00113012)
(0.0114371 0 0.00101313)
(0.0112541 0 0.000905126)
(0.0110904 0 0.000805778)
(0.0109446 0 0.00071465)
(0.0108152 0 0.000631246)
(0.0107008 0 0.000555033)
(0.0106001 0 0.000485453)
(0.010512 0 0.000421938)
(0.0104353 0 0.000363919)
(0.0103692 0 0.000310835)
(0.0103126 0 0.000262138)
(0.0102649 0 0.000217295)
(0.0102254 0 0.000175793)
(0.0101934 0 0.000137135)
(0.0101684 0 0.000100843)
(0.0101501 0 6.64569e-05)
(0.010138 0 3.35306e-05)
(0.0101319 0 1.63095e-06)
(0.0101317 0 -2.96595e-05)
(0.0101372 0 -6.07583e-05)
(0.0101484 0 -9.20971e-05)
(0.0101653 0 -0.000124117)
(0.010188 0 -0.000157278)
(0.0102167 0 -0.000192063)
(0.0102518 0 -0.000228987)
(0.0102935 0 -0.00026861)
(0.0103422 0 -0.000311547)
(0.0103986 0 -0.000358477)
(0.0104633 0 -0.000410167)
(0.0105369 0 -0.000467487)
(0.0106205 0 -0.000531433)
(0.0107149 0 -0.000603159)
(0.0108214 0 -0.000684011)
(0.0109413 0 -0.000775574)
(0.011076 0 -0.000879726)
(0.0112273 0 -0.000998711)
(0.0113971 0 -0.00113523)
(0.0115877 0 -0.00129257)
(0.0118013 0 -0.00147475)
(0.0120409 0 -0.00168674)
(0.0123092 0 -0.00193472)
(0.0126096 0 -0.00222651)
(0.0129454 0 -0.00257202)
(0.0133198 0 -0.00298405)
(0.0137355 0 -0.00347915)
(0.014194 0 -0.00407899)
(0.0146937 0 -0.00481196)
(0.0152277 0 -0.00571503)
(0.0157788 0 -0.00683562)
(0.0163125 0 -0.00823221)
(0.0167647 0 -0.00997161)
(0.0170266 0 -0.0121185)
(0.0169259 0 -0.0147103)
(0.0162131 0 -0.0177071)
(0.0145779 0 -0.0209008)
(0.011775 0 -0.0237942)
(0.00791848 0 -0.0256246)
(0.003582 0 -0.0258355)
(-0.000436353 0 -0.0243052)
(-0.00337487 0 -0.0215227)
(-0.00509302 0 -0.0183003)
(-0.00583814 0 -0.0151971)
(-0.00592434 0 -0.0124707)
(-0.00561637 0 -0.010191)
(-0.00510167 0 -0.00833542)
(-0.00450071 0 -0.00684454)
(-0.00388488 0 -0.00565084)
(-0.00329311 0 -0.00469232)
(-0.00274441 0 -0.00391699)
(-0.00224634 0 -0.00328326)
(-0.00180025 0 -0.00275858)
(-0.00140443 0 -0.00231776)
(-0.00105605 0 -0.00194136)
(-0.000751533 0 -0.00161449)
(-0.000485307 0 -0.00132591)
(-0.000252975 0 -0.0010675)
(-0.000119363 0 -0.000833871)
(-0.000327729 0 0.00272178)
(-0.00068367 0 0.00323631)
(-0.0012745 0 0.00357075)
(-0.00188643 0 0.00373305)
(-0.0024992 0 0.00372937)
(-0.00309437 0 0.00356378)
(-0.00364727 0 0.0032386)
(-0.00413194 0 0.002755)
(-0.00452232 0 0.00211382)
(-0.00479189 0 0.00131661)
(-0.00491377 0 0.000366849)
(-0.0048612 0 -0.000728873)
(-0.00460819 0 -0.00195911)
(-0.00413059 0 -0.00330492)
(-0.00340774 0 -0.00473833)
(-0.00242508 0 -0.00622124)
(-0.00117772 0 -0.00770538)
(0.000341074 0 -0.00913345)
(0.00209937 0 -0.0104035)
(0.00405552 0 -0.0114389)
(0.00615803 0 -0.0121894)
(0.00834478 0 -0.012623)
(0.0105518 0 -0.0127286)
(0.0127177 0 -0.0125152)
(0.0147877 0 -0.0120092)
(0.0167165 0 -0.0112498)
(0.0184692 0 -0.0102844)
(0.0200218 0 -0.00916354)
(0.0213603 0 -0.00793768)
(0.0224792 0 -0.00665406)
(0.02338 0 -0.005355)
(0.02407 0 -0.00407679)
(0.0245605 0 -0.00284925)
(0.0248656 0 -0.00169569)
(0.0250013 0 -0.000633178)
(0.0249845 0 0.000327085)
(0.0248322 0 0.00117875)
(0.0245622 0 0.00191889)
(0.0241918 0 0.00254748)
(0.0237377 0 0.00306706)
(0.0232162 0 0.00348231)
(0.0226422 0 0.00379959)
(0.0220295 0 0.00402653)
(0.0213906 0 0.00417162)
(0.0207367 0 0.0042439)
(0.0200777 0 0.00425258)
(0.019422 0 0.0042068)
(0.018777 0 0.00411544)
(0.0181487 0 0.00398688)
(0.0175418 0 0.00382893)
(0.0169604 0 0.00364868)
(0.0164072 0 0.00345251)
(0.0158842 0 0.00324601)
(0.0153928 0 0.00303401)
(0.0149336 0 0.00282058)
(0.0145067 0 0.00260911)
(0.0141117 0 0.00240234)
(0.0137477 0 0.00220241)
(0.0134138 0 0.00201093)
(0.0131087 0 0.00182906)
(0.012831 0 0.00165757)
(0.0125791 0 0.00149687)
(0.0123513 0 0.00134712)
(0.0121461 0 0.00120824)
(0.0119619 0 0.00107997)
(0.0117971 0 0.000961916)
(0.0116501 0 0.00085358)
(0.0115194 0 0.000754387)
(0.0114039 0 0.000663714)
(0.0113021 0 0.000580908)
(0.0112128 0 0.000505301)
(0.0111351 0 0.000436225)
(0.0110679 0 0.00037302)
(0.0110103 0 0.000315039)
(0.0109616 0 0.000261655)
(0.0109211 0 0.00021226)
(0.010888 0 0.000166269)
(0.0108621 0 0.000123118)
(0.0108427 0 8.22622e-05)
(0.0108296 0 4.31765e-05)
(0.0108224 0 5.34932e-06)
(0.010821 0 -3.1713e-05)
(0.0108252 0 -6.85022e-05)
(0.0108351 0 -0.000105521)
(0.0108505 0 -0.000143285)
(0.0108716 0 -0.000182326)
(0.0108986 0 -0.000223205)
(0.0109316 0 -0.000266516)
(0.010971 0 -0.000312902)
(0.0110172 0 -0.000363062)
(0.0110706 0 -0.000417771)
(0.0111318 0 -0.000477895)
(0.0112015 0 -0.000544409)
(0.0112804 0 -0.000618427)
(0.0113693 0 -0.00070123)
(0.0114692 0 -0.000794302)
(0.0115812 0 -0.000899375)
(0.0117066 0 -0.00101849)
(0.0118466 0 -0.00115406)
(0.0120028 0 -0.00130897)
(0.0121767 0 -0.00148669)
(0.01237 0 -0.0016914)
(0.0125845 0 -0.0019282)
(0.0128218 0 -0.00220337)
(0.0130837 0 -0.00252463)
(0.0133712 0 -0.00290162)
(0.0136848 0 -0.00334635)
(0.0140238 0 -0.00387388)
(0.0143847 0 -0.00450304)
(0.0147603 0 -0.00525723)
(0.0151369 0 -0.00616495)