/*--------------------------------*- C++ -*----------------------------------*\
| =========                 |                                                 |
| \\      /  F ield         | OpenFOAM: The Open Source CFD Toolbox           |
|  \\    /   O peration     | Version:  2306                                  |
|   \\  /    A nd           | Website:  www.openfoam.com                      |
|    \\/     M anipulation  |                                                 |
\*---------------------------------------------------------------------------*/
FoamFile
{
    version     2.0;
    format      ascii;
    arch        "LSB;label=32;scalar=64";
    class       volVectorField;
    location    "30";
    object      UMean;
}
// * * * * * * * * * * * * * * * * * * * * * * * * * * * * * * * * * * * * * //

dimensions      [0 1 -1 0 0 0 0];

internalField   nonuniform List<vector> 
4480
(
(-0.000134738 0 0.000134203)
(-0.000282753 0 0.000172828)
(-0.000547832 0 0.000191938)
(-0.000833687 0 0.000203285)
(-0.00112453 0 0.00020494)
(-0.00140947 0 0.000196407)
(-0.00167548 0 0.000178151)
(-0.00190918 0 0.000150614)
(-0.00209769 0 0.000114072)
(-0.00222848 0 6.87571e-05)
(-0.00228936 0 1.49664e-05)
(-0.00226867 0 -4.68819e-05)
(-0.00215538 0 -0.000116105)
(-0.00193971 0 -0.000191564)
(-0.00161394 0 -0.000271588)
(-0.00117318 0 -0.000353948)
(-0.000615898 0 -0.000435944)
(5.60336e-05 0 -0.000514351)
(0.000834966 0 -0.000584855)
(0.00170508 0 -0.000642933)
(0.00264765 0 -0.000685516)
(0.00363906 0 -0.000710652)
(0.00465359 0 -0.000717348)
(0.00566493 0 -0.000705672)
(0.00664756 0 -0.000676709)
(0.00757813 0 -0.000632398)
(0.00843654 0 -0.000575309)
(0.00920664 0 -0.000508404)
(0.00987666 0 -0.00043479)
(0.0104392 0 -0.00035752)
(0.0108912 0 -0.00027942)
(0.0112332 0 -0.000202973)
(0.0114691 0 -0.000130245)
(0.0116054 0 -6.28341e-05)
(0.0116503 0 -1.804e-06)
(0.011614 0 5.22523e-05)
(0.011506 0 9.90811e-05)
(0.0113367 0 0.00013865)
(0.0111165 0 0.000171105)
(0.0108551 0 0.000196753)
(0.010562 0 0.000216035)
(0.0102458 0 0.000229494)
(0.00991439 0 0.000237735)
(0.00957463 0 0.0002414)
(0.00923256 0 0.000241138)
(0.0088933 0 0.000237587)
(0.00856106 0 0.000231351)
(0.00823923 0 0.000222992)
(0.00793047 0 0.000213022)
(0.0076367 0 0.000201894)
(0.00735928 0 0.000190001)
(0.00709905 0 0.00017768)
(0.0068564 0 0.000165213)
(0.00663138 0 0.000152827)
(0.00642372 0 0.000140705)
(0.00623295 0 0.000128986)
(0.00605842 0 0.000117774)
(0.00589936 0 0.000107141)
(0.00575491 0 9.71319e-05)
(0.00562416 0 8.77711e-05)
(0.00550621 0 7.9065e-05)
(0.00540011 0 7.10062e-05)
(0.00530496 0 6.35764e-05)
(0.0052199 0 5.67496e-05)
(0.00514409 0 5.04937e-05)
(0.00507675 0 4.47731e-05)
(0.00501714 0 3.95496e-05)
(0.00496459 0 3.47836e-05)
(0.00491849 0 3.04355e-05)
(0.00487826 0 2.64658e-05)
(0.0048434 0 2.28361e-05)
(0.00481345 0 1.95087e-05)
(0.00478802 0 1.64477e-05)
(0.00476675 0 1.36183e-05)
(0.00474933 0 1.09872e-05)
(0.0047355 0 8.52252e-06)
(0.00472506 0 6.19357e-06)
(0.00471783 0 3.97092e-06)
(0.00471368 0 1.82659e-06)
(0.00471251 0 -2.66286e-07)
(0.00471428 0 -2.33499e-06)
(0.00471897 0 -4.40751e-06)
(0.0047266 0 -6.51207e-06)
(0.00473723 0 -8.67802e-06)
(0.00475098 0 -1.09364e-05)
(0.00476799 0 -1.33205e-05)
(0.00478847 0 -1.58661e-05)
(0.00481266 0 -1.8613e-05)
(0.00484089 0 -2.16049e-05)
(0.00487352 0 -2.48913e-05)
(0.00491101 0 -2.85287e-05)
(0.0049539 0 -3.25816e-05)
(0.00500281 0 -3.71252e-05)
(0.0050585 0 -4.22476e-05)
(0.00512184 0 -4.80528e-05)
(0.00519388 0 -5.46647e-05)
(0.00527583 0 -6.22321e-05)
(0.00536916 0 -7.09347e-05)
(0.0054756 0 -8.0992e-05)
(0.00559722 0 -9.26729e-05)
(0.00573651 0 -0.00010631)
(0.00589647 0 -0.000122316)
(0.00608075 0 -0.000141209)
(0.00629383 0 -0.000163635)
(0.00654119 0 -0.000190407)
(0.00682964 0 -0.000222539)
(0.00716762 0 -0.000261277)
(0.0075657 0 -0.000308121)
(0.00803697 0 -0.00036479)
(0.00859766 0 -0.000433134)
(0.00926844 0 -0.000515394)
(0.0100779 0 -0.000617068)
(0.0110614 0 -0.000757118)
(0.012233 0 -0.000987793)
(0.0136173 0 -0.00144946)
(0.0160345 0 -0.00280924)
(0.0235513 0 -0.00865999)
(0.0375261 0 -0.0316733)
(0.0419363 0 -0.080696)
(0.0188163 0 -0.101488)
(-0.0106143 0 -0.103579)
(-0.0356149 0 -0.0839866)
(-0.0315677 0 -0.0326913)
(-0.0169004 0 -0.009097)
(-0.00908787 0 -0.00290845)
(-0.00671025 0 -0.00142061)
(-0.0054384 0 -0.000913939)
(-0.00438245 0 -0.00067254)
(-0.00350892 0 -0.000535923)
(-0.00280156 0 -0.000441936)
(-0.00222359 0 -0.000367433)
(-0.00174691 0 -0.000305632)
(-0.00135236 0 -0.000254015)
(-0.00102555 0 -0.000210683)
(-0.00075532 0 -0.00017387)
(-0.000533271 0 -0.000141995)
(-0.000352861 0 -0.000113789)
(-0.000208283 0 -8.86497e-05)
(-9.6738e-05 0 -6.66616e-05)
(-4.33473e-05 0 -4.3574e-05)
(-0.000174749 0 0.000282496)
(-0.000359799 0 0.000357126)
(-0.000677985 0 0.000403435)
(-0.00101572 0 0.000426949)
(-0.00135765 0 0.000429063)
(-0.00169111 0 0.000410361)
(-0.00200069 0 0.000371604)
(-0.00227061 0 0.000313452)
(-0.00248553 0 0.000236393)
(-0.00263051 0 0.000140897)
(-0.00269106 0 2.75814e-05)
(-0.00265336 0 -0.00010265)
(-0.00250448 0 -0.00024833)
(-0.0022332 0 -0.000407026)
(-0.00183072 0 -0.000575197)
(-0.00129168 0 -0.000748192)
(-0.000614525 0 -0.000920466)
(0.000198222 0 -0.00108526)
(0.00113614 0 -0.00123326)
(0.00218023 0 -0.00135534)
(0.00330834 0 -0.00144516)
(0.00449279 0 -0.00149841)
(0.00570359 0 -0.00151296)
(0.00691008 0 -0.00148889)
(0.00808262 0 -0.00142847)
(0.00919411 0 -0.00133572)
(0.0102212 0 -0.00121604)
(0.011145 0 -0.00107563)
(0.0119517 0 -0.000920997)
(0.0126324 0 -0.000758544)
(0.0131833 0 -0.000594199)
(0.0136045 0 -0.000433172)
(0.0139002 0 -0.000279797)
(0.0140774 0 -0.000137442)
(0.0141455 0 -8.43696e-06)
(0.0141157 0 0.000105949)
(0.0139995 0 0.000205201)
(0.0138089 0 0.00028919)
(0.0135559 0 0.000358201)
(0.0132523 0 0.000412869)
(0.0129092 0 0.000454109)
(0.0125369 0 0.000483049)
(0.0121448 0 0.000500954)
(0.0117413 0 0.000509165)
(0.0113337 0 0.000509044)
(0.0109282 0 0.000501929)
(0.0105301 0 0.000489093)
(0.0101436 0 0.000471723)
(0.00977191 0 0.000450896)
(0.00941761 0 0.000427572)
(0.00908244 0 0.000402588)
(0.00876752 0 0.000376658)
(0.00847343 0 0.000350381)
(0.00820032 0 0.000324245)
(0.00794796 0 0.000298638)
(0.00771586 0 0.000273862)
(0.00750327 0 0.000250139)
(0.00730933 0 0.000227624)
(0.00713304 0 0.000206419)
(0.00697333 0 0.000186576)
(0.00682911 0 0.000168113)
(0.00669929 0 0.000151014)
(0.00658278 0 0.000135244)
(0.00647855 0 0.000120749)
(0.00638558 0 0.000107463)
(0.00630293 0 9.53096e-05)
(0.00622973 0 8.42098e-05)
(0.00616515 0 7.40803e-05)
(0.00610844 0 6.48374e-05)
(0.00605893 0 5.63978e-05)
(0.00601598 0 4.86801e-05)
(0.00597905 0 4.1605e-05)
(0.00594765 0 3.50961e-05)
(0.00592134 0 2.90799e-05)
(0.00589976 0 2.34858e-05)
(0.00588258 0 1.82463e-05)
(0.00586956 0 1.32964e-05)
(0.00586047 0 8.57354e-06)
(0.00585515 0 4.01797e-06)
(0.00585349 0 -4.27906e-07)
(0.00585543 0 -4.82101e-06)
(0.00586095 0 -9.21999e-06)
(0.00587006 0 -1.36853e-05)
(0.00588285 0 -1.82793e-05)
(0.00589944 0 -2.30676e-05)
(0.00592003 0 -2.81206e-05)
(0.00594485 0 -3.35142e-05)
(0.0059742 0 -3.9332e-05)
(0.00600847 0 -4.56668e-05)
(0.00604812 0 -5.26231e-05)
(0.00609367 0 -6.03196e-05)
(0.00614579 0 -6.88929e-05)
(0.00620524 0 -7.85014e-05)
(0.00627292 0 -8.93307e-05)
(0.00634988 0 -0.0001016)
(0.00643739 0 -0.00011557)
(0.00653692 0 -0.000131554)
(0.00665022 0 -0.000149931)
(0.00677937 0 -0.000171164)
(0.00692686 0 -0.000195819)
(0.00709568 0 -0.0002246)
(0.00728944 0 -0.000258382)
(0.00751253 0 -0.000298269)
(0.00777033 0 -0.000345657)
(0.00806951 0 -0.000402326)
(0.0084184 0 -0.00047057)
(0.00882759 0 -0.000553363)
(0.00931079 0 -0.00065462)
(0.00988616 0 -0.000779604)
(0.0105788 0 -0.000935699)
(0.0114255 0 -0.00113426)
(0.0124847 0 -0.00139611)
(0.013851 0 -0.00176639)
(0.0156745 0 -0.00234561)
(0.0182387 0 -0.00335166)
(0.0222886 0 -0.00538189)
(0.0292123 0 -0.0106256)
(0.0367199 0 -0.0257911)
(0.0334458 0 -0.0580513)
(0.0158435 0 -0.0757772)
(-0.0072683 0 -0.0772027)
(-0.025995 0 -0.0604528)
(-0.0294522 0 -0.026913)
(-0.0215561 0 -0.0110449)
(-0.0143791 0 -0.00547335)
(-0.0102495 0 -0.00329259)
(-0.00768793 0 -0.00222132)
(-0.00590638 0 -0.00162103)
(-0.00460411 0 -0.00125087)
(-0.00361948 0 -0.000997511)
(-0.00285007 0 -0.000809549)
(-0.00223364 0 -0.000663488)
(-0.001732 0 -0.000546802)
(-0.00132016 0 -0.000451523)
(-0.000980874 0 -0.000372017)
(-0.000701923 0 -0.000304103)
(-0.000474182 0 -0.000244709)
(-0.000289615 0 -0.000191735)
(-0.000142732 0 -0.000143409)
(-6.62361e-05 0 -9.73547e-05)
(-0.000199829 0 0.000551402)
(-0.000418477 0 0.000677755)
(-0.000783625 0 0.000760208)
(-0.00116581 0 0.000800966)
(-0.00155003 0 0.000802048)
(-0.00192276 0 0.000764648)
(-0.00226689 0 0.000689855)
(-0.0025648 0 0.000578618)
(-0.0027993 0 0.00043174)
(-0.00295357 0 0.000250096)
(-0.00301124 0 3.49059e-05)
(-0.00295672 0 -0.000211974)
(-0.00277552 0 -0.000487562)
(-0.0024551 0 -0.000787134)
(-0.00198568 0 -0.00110397)
(-0.00136144 0 -0.00142934)
(-0.000580748 0 -0.00175279)
(0.000353615 0 -0.00206139)
(0.00142829 0 -0.00233744)
(0.0026219 0 -0.00256471)
(0.00390889 0 -0.00273169)
(0.00525779 0 -0.00283044)
(0.00663476 0 -0.00285706)
(0.00800541 0 -0.00281184)
(0.00933667 0 -0.00269901)
(0.0105984 0 -0.00252605)
(0.0117649 0 -0.0023029)
(0.0128153 0 -0.00204097)
(0.0137345 0 -0.00175223)
(0.0145126 0 -0.00144846)
(0.0151454 0 -0.00114061)
(0.015633 0 -0.000838289)
(0.0159797 0 -0.000549567)
(0.0161932 0 -0.000280753)
(0.0162834 0 -3.63403e-05)
(0.0162626 0 0.000181033)
(0.0161435 0 0.00037018)
(0.0159394 0 0.000530774)
(0.0156637 0 0.000663261)
(0.0153296 0 0.000768756)
(0.0149493 0 0.000848911)
(0.0145347 0 0.000905781)
(0.0140962 0 0.000941696)
(0.0136435 0 0.000959141)
(0.0131849 0 0.000960657)
(0.0127275 0 0.000948746)
(0.0122775 0 0.000925806)
(0.0118396 0 0.000894076)
(0.0114178 0 0.000855601)
(0.011015 0 0.000812208)
(0.0106334 0 0.000765495)
(0.0102743 0 0.000716833)
(0.00993846 0 0.000667374)
(0.00962623 0 0.000618062)
(0.0093374 0 0.000569653)
(0.00907147 0 0.000522734)
(0.00882766 0 0.000477742)
(0.00860502 0 0.00043499)
(0.00840246 0 0.000394677)
(0.00821881 0 0.000356918)
(0.00805284 0 0.000321752)
(0.00790333 0 0.000289161)
(0.00776905 0 0.000259081)
(0.00764882 0 0.000231414)
(0.00754151 0 0.00020604)
(0.00744605 0 0.000182817)
(0.00736144 0 0.000161598)
(0.00728673 0 0.000142225)
(0.00722108 0 0.000124541)
(0.00716369 0 0.000108388)
(0.00711387 0 9.3612e-05)
(0.00707098 0 8.00631e-05)
(0.00703445 0 6.75959e-05)
(0.00700379 0 5.60708e-05)
(0.00697858 0 4.53536e-05)
(0.00695844 0 3.53154e-05)
(0.00694308 0 2.58328e-05)
(0.00693225 0 1.67864e-05)
(0.00692576 0 8.06174e-06)
(0.00692348 0 -4.51702e-07)
(0.00692533 0 -8.86231e-06)
(0.00693129 0 -1.72812e-05)
(0.00694138 0 -2.58233e-05)
(0.00695568 0 -3.46076e-05)
(0.00697433 0 -4.37592e-05)
(0.00699754 0 -5.34116e-05)
(0.00702559 0 -6.37093e-05)
(0.0070588 0 -7.48108e-05)
(0.00709761 0 -8.68922e-05)
(0.00714252 0 -0.000100151)
(0.00719414 0 -0.000114812)
(0.00725318 0 -0.000131133)
(0.00732051 0 -0.000149413)
(0.00739712 0 -0.000170002)
(0.00748418 0 -0.000193312)
(0.00758307 0 -0.000219834)
(0.00769544 0 -0.000250157)
(0.00782318 0 -0.000284992)
(0.0079686 0 -0.000325207)
(0.00813439 0 -0.000371866)
(0.00832382 0 -0.000426289)
(0.00854078 0 -0.000490126)
(0.00879004 0 -0.000565461)
(0.0090774 0 -0.000654951)
(0.00941008 0 -0.000762036)
(0.00979711 0 -0.000891233)
(0.0102501 0 -0.00104861)
(0.010784 0 -0.00124253)
(0.0114193 0 -0.00148506)
(0.012184 0 -0.00179443)
(0.0131187 0 -0.00220027)
(0.0142834 0 -0.00275449)
(0.0157672 0 -0.00355458)
(0.0176971 0 -0.00478798)
(0.0202488 0 -0.0068119)
(0.0236395 0 -0.0103346)
(0.0277595 0 -0.0168645)
(0.0303377 0 -0.0290361)
(0.025821 0 -0.0466633)
(0.0130514 0 -0.057768)
(-0.00366259 0 -0.0586859)
(-0.0172231 0 -0.0482341)
(-0.0219556 0 -0.030112)
(-0.019253 0 -0.0174507)
(-0.014956 0 -0.0105776)
(-0.0114362 0 -0.00683448)
(-0.00881054 0 -0.00468252)
(-0.006852 0 -0.00338481)
(-0.00537367 0 -0.00255904)
(-0.0042375 0 -0.00199984)
(-0.00334521 0 -0.00159878)
(-0.00263059 0 -0.00129772)
(-0.0020496 0 -0.00106354)
(-0.00157241 0 -0.000875896)
(-0.0011783 0 -0.000721461)
(-0.000852622 0 -0.000591045)
(-0.000584422 0 -0.000478233)
(-0.00036384 0 -0.000378637)
(-0.000183407 0 -0.000289091)
(-8.46655e-05 0 -0.000208087)
(-0.000222828 0 0.000853052)
(-0.000466541 0 0.00103268)
(-0.000870982 0 0.00114994)
(-0.00129123 0 0.00120627)
(-0.00171161 0 0.00120385)
(-0.00211779 0 0.00114426)
(-0.00249131 0 0.00102884)
(-0.00281308 0 0.000858725)
(-0.0030644 0 0.000634962)
(-0.00322686 0 0.0003588)
(-0.00328249 0 3.20861e-05)
(-0.00321412 0 -0.000342308)
(-0.00300574 0 -0.000759761)
(-0.00264343 0 -0.00121309)
(-0.00211629 0 -0.00169216)
(-0.0014178 0 -0.00218379)
(-0.000545989 0 -0.00267212)
(0.000496548 0 -0.0031372)
(0.00169344 0 -0.0035515)
(0.0030212 0 -0.00389143)
(0.00445058 0 -0.00414005)
(0.0059462 0 -0.00428569)
(0.0074703 0 -0.00432284)
(0.00898475 0 -0.00425229)
(0.0104532 0 -0.00408066)
(0.011843 0 -0.00381943)
(0.0131263 0 -0.00348356)
(0.0142812 0 -0.00309011)
(0.0152915 0 -0.00265689)
(0.0161475 0 -0.00220133)
(0.0168448 0 -0.00173957)
(0.0173839 0 -0.0012858)
(0.0177698 0 -0.000851891)
(0.0180107 0 -0.000447185)
(0.0181175 0 -7.84183e-05)
(0.0181031 0 0.000250274)
(0.0179813 0 0.000536924)
(0.0177665 0 0.000780951)
(0.017473 0 0.00098293)
(0.017115 0 0.00114444)
(0.016706 0 0.00126786)
(0.0162586 0 0.0013562)
(0.0157844 0 0.00141289)
(0.0152937 0 0.0014416)
(0.0147956 0 0.0014461)
(0.0142981 0 0.00143013)
(0.0138078 0 0.00139728)
(0.0133301 0 0.00135091)
(0.0128693 0 0.00129411)
(0.0124287 0 0.00122965)
(0.0120108 0 0.00115994)
(0.0116171 0 0.00108708)
(0.0112487 0 0.00101283)
(0.0109057 0 0.000938648)
(0.0105882 0 0.000865689)
(0.0102956 0 0.000794865)
(0.0100271 0 0.000726862)
(0.00978173 0 0.000662166)
(0.00955835 0 0.0006011)
(0.00935567 0 0.000543851)
(0.00917238 0 0.000490489)
(0.00900716 0 0.000440999)
(0.00885868 0 0.000395293)
(0.00872564 0 0.000353229)
(0.00860683 0 0.00031463)
(0.00850107 0 0.000279288)
(0.00840725 0 0.000246981)
(0.00832435 0 0.000217473)
(0.00825144 0 0.000190529)
(0.00818766 0 0.000165911)
(0.00813222 0 0.000143386)
(0.00808443 0 0.000122727)
(0.00804367 0 0.000103715)
(0.00800938 0 8.61387e-05)
(0.00798111 0 6.97943e-05)
(0.00795844 0 5.44871e-05)
(0.00794103 0 4.00294e-05)
(0.00792862 0 2.62406e-05)
(0.00792098 0 1.29463e-05)
(0.00791798 0 -2.18653e-08)
(0.00791952 0 -1.28284e-05)
(0.00792556 0 -2.56409e-05)
(0.00793612 0 -3.8633e-05)
(0.0079513 0 -5.19844e-05)
(0.00797123 0 -6.58839e-05)
(0.00799613 0 -8.05327e-05)
(0.00802629 0 -9.61482e-05)
(0.00806206 0 -0.000112968)
(0.00810389 0 -0.000131257)
(0.00815232 0 -0.000151309)
(0.00820797 0 -0.00017346)
(0.00827162 0 -0.000198094)
(0.00834414 0 -0.000225656)
(0.00842659 0 -0.000256664)
(0.00852018 0 -0.000291727)
(0.00862634 0 -0.000331572)
(0.00874675 0 -0.000377064)
(0.00888339 0 -0.000429249)
(0.00903856 0 -0.000489399)
(0.00921502 0 -0.000559074)
(0.00941604 0 -0.000640204)
(0.00964552 0 -0.0007352)
(0.00990816 0 -0.000847112)
(0.0102097 0 -0.000979842)
(0.0105571 0 -0.00113846)
(0.0109591 0 -0.00132967)
(0.0114266 0 -0.00156256)
(0.0119737 0 -0.00184978)
(0.0126186 0 -0.00220954)
(0.0133852 0 -0.00266916)
(0.0143055 0 -0.00327127)
(0.0154205 0 -0.00408513)
(0.0167798 0 -0.00522644)
(0.0184314 0 -0.00688956)
(0.0203923 0 -0.00939456)
(0.0225657 0 -0.013253)
(0.0244674 0 -0.0192228)
(0.0245542 0 -0.0280157)
(0.0201751 0 -0.0384757)
(0.0109167 0 -0.0453842)
(-0.000778407 0 -0.0460213)
(-0.0106134 0 -0.0396416)
(-0.0152047 0 -0.0290286)
(-0.0151285 0 -0.019908)
(-0.0131351 0 -0.0136278)
(-0.0108502 0 -0.00952863)
(-0.00879403 0 -0.00685876)
(-0.00707544 0 -0.00509425)
(-0.00567808 0 -0.003897)
(-0.00454945 0 -0.00305629)
(-0.00363403 0 -0.00244431)
(-0.00288537 0 -0.00198354)
(-0.00226783 0 -0.0016259)
(-0.00175491 0 -0.00134048)
(-0.00132706 0 -0.00110666)
(-0.000969894 0 -0.000910224)
(-0.000672315 0 -0.000741304)
(-0.00042388 0 -0.00059314)
(-0.000216528 0 -0.000461206)
(-0.000100692 0 -0.00034368)
(-0.000242659 0 0.00118037)
(-0.000506961 0 0.00141706)
(-0.000944935 0 0.00156993)
(-0.00139833 0 0.00164113)
(-0.00185062 0 0.00163343)
(-0.00228669 0 0.00154881)
(-0.00268694 0 0.00138887)
(-0.00303105 0 0.00115485)
(-0.00329901 0 0.000847971)
(-0.00347096 0 0.000469756)
(-0.00352742 0 2.26324e-05)
(-0.00344963 0 -0.000489524)
(-0.00321994 0 -0.00106042)
(-0.00282284 0 -0.00168031)
(-0.00224599 0 -0.00233542)
(-0.00148186 0 -0.00300775)
(-0.000527878 0 -0.00367547)
(0.000614104 0 -0.00431083)
(0.0019246 0 -0.00487484)
(0.00337795 0 -0.00533597)
(0.00494073 0 -0.00567126)
(0.0065732 0 -0.00586513)
(0.00823316 0 -0.00591056)
(0.00987845 0 -0.00580928)
(0.0114693 0 -0.00557096)
(0.0129706 0 -0.00521171)
(0.0143529 0 -0.00475224)
(0.0155933 0 -0.00421588)
(0.0166758 0 -0.00362675)
(0.0175908 0 -0.00300828)
(0.0183348 0 -0.00238204)
(0.0189093 0 -0.00176691)
(0.0193202 0 -0.00117863)
(0.0195769 0 -0.000629583)
(0.0196912 0 -0.000128727)
(0.0196769 0 0.000318309)
(0.0195487 0 0.00070873)
(0.0193217 0 0.00104168)
(0.0190114 0 0.00131788)
(0.0186326 0 0.00153937)
(0.0181997 0 0.00170932)
(0.0177258 0 0.00183171)
(0.0172233 0 0.00191111)
(0.0167031 0 0.00195244)
(0.0161748 0 0.00196077)
(0.0156468 0 0.00194111)
(0.015126 0 0.00189831)
(0.0146184 0 0.00183691)
(0.0141285 0 0.0017611)
(0.0136597 0 0.00167462)
(0.0132148 0 0.0015808)
(0.0127955 0 0.00148248)
(0.0124027 0 0.00138207)
(0.0120369 0 0.00128158)
(0.011698 0 0.0011826)
(0.0113856 0 0.0010864)
(0.0110987 0 0.000993934)
(0.0108364 0 0.000905878)
(0.0105975 0 0.000822694)
(0.0103806 0 0.000744649)
(0.0101843 0 0.000671856)
(0.0100073 0 0.000604302)
(0.00984817 0 0.00054188)
(0.0097055 0 0.000484405)
(0.00957801 0 0.000431641)
(0.00946445 0 0.000383311)
(0.00936365 0 0.000339114)
(0.00927453 0 0.000298736)
(0.00919608 0 0.000261855)
(0.00912738 0 0.000228151)
(0.00906761 0 0.000197307)
(0.00901602 0 0.000169016)
(0.00897194 0 0.000142978)
(0.00893479 0 0.000118907)
(0.00890406 0 9.65251e-05)
(0.00887931 0 7.5568e-05)
(0.00886018 0 5.57799e-05)
(0.00884637 0 3.69148e-05)
(0.00883765 0 1.87348e-05)
(0.00883386 0 1.01006e-06)
(0.00883488 0 -1.6484e-05)
(0.00884068 0 -3.39745e-05)
(0.00885127 0 -5.16961e-05)
(0.00886672 0 -6.98918e-05)
(0.00888719 0 -8.88169e-05)
(0.00891288 0 -0.000108742)
(0.00894408 0 -0.00012996)
(0.00898115 0 -0.00015279)
(0.00902453 0 -0.000177583)
(0.00907477 0 -0.000204735)
(0.00913251 0 -0.000234692)
(0.00919849 0 -0.000267962)
(0.00927361 0 -0.000305132)
(0.0093589 0 -0.000346887)
(0.00945557 0 -0.000394029)
(0.00956501 0 -0.000447504)
(0.00968886 0 -0.000508446)
(0.00982902 0 -0.000578213)
(0.00998772 0 -0.000658453)
(0.0101676 0 -0.00075118)
(0.0103716 0 -0.000858876)
(0.0106034 0 -0.000984635)
(0.0108674 0 -0.00113235)
(0.0111685 0 -0.00130699)
(0.011513 0 -0.00151499)
(0.0119082 0 -0.00176482)
(0.0123632 0 -0.00206784)
(0.0128888 0 -0.00243966)
(0.0134983 0 -0.00290228)
(0.0142073 0 -0.00348741)
(0.0150335 0 -0.0042419)
(0.0159936 0 -0.00523602)
(0.0170965 0 -0.00657562)
(0.0183259 0 -0.00841745)
(0.0196051 0 -0.0109832)
(0.0207292 0 -0.0145595)
(0.0212283 0 -0.0194422)
(0.0201563 0 -0.0256696)
(0.0162669 0 -0.0322508)
(0.00948554 0 -0.0365967)
(0.0012923 0 -0.0370422)
(-0.00590299 0 -0.0331301)
(-0.00997448 0 -0.0265532)
(-0.0111161 0 -0.0201292)
(-0.0105909 0 -0.015004)
(-0.00939289 0 -0.0112085)
(-0.00802756 0 -0.00847172)
(-0.00671969 0 -0.00650917)
(-0.00555487 0 -0.00509103)
(-0.00455154 0 -0.00404945)
(-0.00369932 0 -0.0032683)
(-0.00297857 0 -0.00266905)
(-0.00236899 0 -0.00219864)
(-0.00185269 0 -0.00182076)
(-0.00141496 0 -0.00151016)
(-0.00104419 0 -0.00124897)
(-0.000730836 0 -0.00102448)
(-0.00046522 0 -0.000827837)
(-0.000239809 0 -0.000653101)
(-0.000112292 0 -0.000497437)
(-0.000259379 0 0.00153213)
(-0.000541463 0 0.00182988)
(-0.00100881 0 0.00202006)
(-0.00149185 0 0.00210633)
(-0.00197327 0 0.0020923)
(-0.00243733 0 0.00198053)
(-0.00286344 0 0.00177282)
(-0.00323019 0 0.00147051)
(-0.00351633 0 0.00107478)
(-0.00370065 0 0.000587345)
(-0.00376205 0 1.106e-05)
(-0.00368006 0 -0.00064928)
(-0.00343514 0 -0.00138578)
(-0.00300985 0 -0.00218605)
(-0.00239 0 -0.00303248)
(-0.00156663 0 -0.00390184)
(-0.000536345 0 -0.00476561)
(0.000700425 0 -0.00558748)
(0.00212082 0 -0.0063147)
(0.00369673 0 -0.00690688)
(0.00538986 0 -0.00733427)
(0.00715527 0 -0.00757707)
(0.00894561 0 -0.007627)
(0.0107141 0 -0.00748729)
(0.0124172 0 -0.00717155)
(0.0140173 0 -0.00670156)
(0.0154836 0 -0.00610475)
(0.0167929 0 -0.00541154)
(0.0179296 0 -0.00465302)
(0.0188854 0 -0.00385907)
(0.019658 0 -0.00305694)
(0.0202507 0 -0.00227032)
(0.0206709 0 -0.00151881)
(0.0209295 0 -0.000817742)
(0.0210396 0 -0.000178179)
(0.0210162 0 0.000392899)
(0.0208747 0 0.000891934)
(0.0206313 0 0.00131784)
(0.020302 0 0.00167152)
(0.0199025 0 0.00195557)
(0.0194476 0 0.00217399)
(0.0189509 0 0.00233183)
(0.0184252 0 0.00243487)
(0.0178818 0 0.00248933)
(0.0173305 0 0.00250161)
(0.0167799 0 0.00247809)
(0.0162372 0 0.00242489)
(0.0157083 0 0.0023478)
(0.0151979 0 0.00225213)
(0.0147097 0 0.00214266)
(0.0142463 0 0.00202363)
(0.0138094 0 0.00189868)
(0.0134002 0 0.0017709)
(0.013019 0 0.00164285)
(0.0126658 0 0.00151661)
(0.0123401 0 0.0013938)
(0.0120409 0 0.00127566)
(0.0117673 0 0.00116308)
(0.011518 0 0.00105665)
(0.0112915 0 0.000956746)
(0.0110866 0 0.000863514)
(0.0109017 0 0.000776953)
(0.0107354 0 0.000696932)
(0.0105862 0 0.000623226)
(0.0104528 0 0.000555537)
(0.010334 0 0.000493517)
(0.0102285 0 0.000436787)
(0.0101351 0 0.000384946)
(0.0100528 0 0.000337587)
(0.00998073 0 0.0002943)
(0.00991794 0 0.000254683)
(0.00986367 0 0.000218343)
(0.00981722 0 0.000184899)
(0.00977799 0 0.000153984)
(0.00974544 0 0.000125244)
(0.00971911 0 9.83419e-05)
(0.00969861 0 7.29504e-05)
(0.00968363 0 4.87556e-05)
(0.00967393 0 2.54539e-05)
(0.00966932 0 2.75099e-06)
(0.00966967 0 -1.96404e-05)
(0.00967495 0 -4.20089e-05)
(0.00968514 0 -6.46516e-05)
(0.00970033 0 -8.78761e-05)
(0.00972064 0 -0.000112004)
(0.00974627 0 -0.000137378)
(0.0097775 0 -0.000164364)
(0.00981468 0 -0.000193361)
(0.00985823 0 -0.00022481)
(0.00990868 0 -0.000259199)
(0.00996663 0 -0.000297083)
(0.0100328 0 -0.00033909)
(0.0101081 0 -0.000385942)
(0.0101934 0 -0.000438476)
(0.0102899 0 -0.00049767)
(0.0103989 0 -0.000564675)
(0.0105219 0 -0.00064086)
(0.0106606 0 -0.000727859)
(0.0108171 0 -0.000827643)
(0.0109936 0 -0.000942608)
(0.0111928 0 -0.00107569)
(0.0114179 0 -0.00123052)
(0.0116723 0 -0.00141164)
(0.0119603 0 -0.0016248)
(0.0122866 0 -0.00187735)
(0.0126566 0 -0.00217883)
(0.0130766 0 -0.00254184)
(0.0135534 0 -0.00298323)
(0.014094 0 -0.00352594)
(0.014705 0 -0.00420159)
(0.01539 0 -0.00505408)
(0.0161453 0 -0.00614434)
(0.0169513 0 -0.0075556)
(0.0177566 0 -0.00939678)
(0.0184513 0 -0.0117986)
(0.0188274 0 -0.0148906)
(0.0185246 0 -0.0187354)
(0.0169906 0 -0.0231639)
(0.0136583 0 -0.0274571)
(0.00859708 0 -0.03024)
(0.00272818 0 -0.0305478)
(-0.00262131 0 -0.0281181)
(-0.00610474 0 -0.0239053)
(-0.00772676 0 -0.019377)
(-0.00804355 0 -0.0153601)
(-0.00762797 0 -0.0120874)
(-0.00686659 0 -0.00952761)
(-0.00598679 0 -0.0075623)
(-0.0051105 0 -0.00606064)
(-0.00429536 0 -0.00490819)
(-0.00356305 0 -0.00401457)
(-0.00291706 0 -0.00331191)
(-0.00235268 0 -0.00275035)
(-0.00186218 0 -0.00229347)
(-0.00143744 0 -0.00191458)
(-0.00107104 0 -0.00159405)
(-0.000756265 0 -0.00131744)
(-0.000485217 0 -0.00107435)
(-0.000251744 0 -0.000857609)
(-0.000118427 0 -0.000663154)
(-0.000273735 0 0.00190557)
(-0.000571416 0 0.00226811)
(-0.00106482 0 0.00249766)
(-0.00157478 0 0.00259977)
(-0.0020834 0 0.00257919)
(-0.00257443 0 0.00243909)
(-0.00302646 0 0.00218148)
(-0.00341708 0 0.00180758)
(-0.00372387 0 0.00131844)
(-0.00392415 0 0.000715664)
(-0.00399513 0 2.36287e-06)
(-0.00391437 0 -0.000815953)
(-0.00366013 0 -0.00172993)
(-0.00321258 0 -0.00272458)
(-0.00255521 0 -0.00377824)
(-0.00167713 0 -0.004862)
(-0.00057395 0 -0.00593984)
(0.00075615 0 -0.0069661)
(0.00228646 0 -0.0078713)
(0.00398594 0 -0.00860492)
(0.00581052 0 -0.00912946)
(0.00770902 0 -0.0094206)
(0.00962795 0 -0.00946909)
(0.0115151 0 -0.00928056)
(0.013323 0 -0.00887376)
(0.0150112 0 -0.00827746)
(0.016548 0 -0.00752705)
(0.0179102 0 -0.0066611)
(0.0190836 0 -0.00571843)
(0.0200617 0 -0.00473589)
(0.0208443 0 -0.00374664)
(0.0214371 0 -0.00277922)
(0.0218497 0 -0.00185699)
(0.0220949 0 -0.000998014)
(0.0221876 0 -0.000215228)
(0.0221439 0 0.000483333)
(0.0219804 0 0.00109352)
(0.0217142 0 0.00161412)
(0.021362 0 0.00204636)
(0.0209398 0 0.00239351)
(0.020463 0 0.00266051)
(0.0199456 0 0.00285358)
(0.0194003 0 0.00297979)
(0.0188384 0 0.00304673)
(0.01827 0 0.00306221)
(0.0177036 0 0.00303397)
(0.0171462 0 0.00296949)
(0.0166038 0 0.00287577)
(0.0160809 0 0.00275931)
(0.0155812 0 0.00262591)
(0.0151072 0 0.00248073)
(0.0146605 0 0.00232822)
(0.0142423 0 0.00217217)
(0.0138529 0 0.00201569)
(0.0134921 0 0.00186134)
(0.0131593 0 0.0017111)
(0.0128537 0 0.00156651)
(0.0125742 0 0.00142866)
(0.0123195 0 0.00129829)
(0.0120881 0 0.00117586)
(0.0118787 0 0.00106157)
(0.0116897 0 0.000955422)
(0.0115196 0 0.000857265)
(0.0113671 0 0.000766829)
(0.0112307 0 0.000683756)
(0.011109 0 0.000607625)
(0.011001 0 0.000537974)
(0.0109053 0 0.000474316)
(0.010821 0 0.000416154)
(0.010747 0 0.000362991)
(0.0106825 0 0.000314333)
(0.0106267 0 0.000269701)
(0.0105789 0 0.00022863)
(0.0105383 0 0.000190672)
(0.0105046 0 0.000155395)
(0.0104772 0 0.000122385)
(0.0104558 0 9.12451e-05)
(0.0104399 0 6.15913e-05)
(0.0104293 0 3.30529e-05)
(0.0104239 0 5.27051e-06)
(0.0104235 0 -2.21072e-05)
(0.010428 0 -4.94309e-05)
(0.0104374 0 -7.70596e-05)
(0.0104519 0 -0.000105365)
(0.0104714 0 -0.000134734)
(0.0104962 0 -0.000165578)
(0.0105266 0 -0.000198334)
(0.0105627 0 -0.000233479)
(0.0106052 0 -0.000271535)
(0.0106544 0 -0.000313081)
(0.0107109 0 -0.000358769)
(0.0107753 0 -0.000409335)
(0.0108484 0 -0.000465622)
(0.0109312 0 -0.000528603)
(0.0110246 0 -0.000599407)
(0.0111298 0 -0.000679358)
(0.0112481 0 -0.000770017)
(0.011381 0 -0.000873241)
(0.0115301 0 -0.000991251)
(0.0116975 0 -0.00112673)
(0.0118853 0 -0.00128293)
(0.0120958 0 -0.00146384)
(0.0123318 0 -0.00167441)
(0.0125961 0 -0.00192079)
(0.0128921 0 -0.00221075)
(0.0132229 0 -0.00255418)
(0.0135917 0 -0.0029638)
(0.0140012 0 -0.00345613)
(0.0144527 0 -0.00405275)
(0.0149447 0 -0.00478196)
(0.0154702 0 -0.00568067)
(0.016012 0 -0.00679618)
(0.0165356 0 -0.00818692)
(0.0169772 0 -0.00991969)
(0.0172279 0 -0.0120593)
(0.0171159 0 -0.0146434)
(0.0163921 0 -0.0176325)
(0.0147463 0 -0.0208194)
(0.0119329 0 -0.0237081)
(0.00806504 0 -0.0255363)
(0.00371549 0 -0.0257468)
(-0.000316667 0 -0.0242171)
(-0.00327097 0 -0.0214343)
(-0.00500237 0 -0.0182123)
(-0.00575983 0 -0.0151107)
(-0.00585731 0 -0.0123874)
(-0.00555957 0 -0.0101126)
(-0.00505418 0 -0.00826343)
(-0.00446166 0 -0.00678013)
(-0.0038534 0 -0.00559476)
(-0.00326831 0 -0.00464487)
(-0.00272538 0 -0.00387808)
(-0.00223217 0 -0.00325247)
(-0.00179004 0 -0.00273521)
(-0.00139736 0 -0.0023009)
(-0.00105136 0 -0.00192997)
(-0.000748608 0 -0.00160743)
(-0.000483634 0 -0.00132203)
(-0.000252183 0 -0.00106571)
(-0.000119028 0 -0.000833193)
(-0.000286175 0 0.0022978)
(-0.000597502 0 0.00272861)
(-0.00111393 0 0.0029998)
(-0.00164829 0 0.00311911)
(-0.00218233 0 0.00309259)
(-0.00269949 0 0.00292402)
(-0.00317769 0 0.0026155)
(-0.00359361 0 0.00216797)
(-0.00392365 0 0.00158202)
(-0.00414363 0 0.000858899)
(-0.00422883 0 1.61114e-06)
(-0.00415457 0 -0.000983892)
(-0.00389652 0 -0.00208705)
(-0.003432 0 -0.00329037)
(-0.00274163 0 -0.00456799)
(-0.00181204 0 -0.00588478)
(-0.0006376 0 -0.00719633)
(0.000786558 0 -0.00844668)
(0.00242926 0 -0.009546)
(0.00425596 0 -0.010432)
(0.00621566 0 -0.0110582)
(0.00824969 0 -0.0113954)
(0.0102973 0 -0.011434)
(0.0123 0 -0.0111831)
(0.0142059 0 -0.0106682)
(0.0159719 0 -0.00992684)
(0.0175654 0 -0.00900383)
(0.0189644 0 -0.00794715)
(0.0201565 0 -0.00680426)
(0.0211377 0 -0.00561946)
(0.0219111 0 -0.00443206)
(0.0224851 0 -0.00327539)
(0.0228724 0 -0.00217635)
(0.0230882 0 -0.00115544)
(0.0231494 0 -0.000227045)
(0.0230735 0 0.000600135)
(0.0228784 0 0.00132161)
(0.0225821 0 0.00193627)
(0.0222019 0 0.00244583)
(0.0217544 0 0.00285444)
(0.0212551 0 0.00316816)
(0.020718 0 0.0033945)
(0.0201558 0 0.00354191)
(0.0195797 0 0.00361946)
(0.0189995 0 0.00363638)
(0.0184233 0 0.00360183)
(0.017858 0 0.00352462)
(0.0173093 0 0.00341304)
(0.0167814 0 0.00327468)
(0.0162777 0 0.0031164)
(0.0158006 0 0.00294426)
(0.0153515 0 0.0027635)
(0.0149314 0 0.00257855)
(0.0145405 0 0.00239313)
(0.0141786 0 0.0022102)
(0.0138449 0 0.00203214)
(0.0135386 0 0.00186075)
(0.0132585 0 0.00169731)
(0.0130033 0 0.00154273)
(0.0127715 0 0.00139752)
(0.0125616 0 0.00126195)
(0.0123723 0 0.00113601)
(0.0122019 0 0.00101954)
(0.012049 0 0.000912207)
(0.0119122 0 0.000813601)
(0.0117903 0 0.000723224)
(0.0116819 0 0.000640531)
(0.0115859 0 0.000564948)
(0.0115012 0 0.000495889)
(0.0114268 0 0.000432764)
(0.011362 0 0.000374992)
(0.0113058 0 0.000322005)
(0.0112575 0 0.000273254)
(0.0112165 0 0.000228209)
(0.0111823 0 0.00018636)
(0.0111544 0 0.00014722)
(0.0111324 0 0.000110318)
(0.0111158 0 7.52028e-05)
(0.0111046 0 4.14365e-05)
(0.0110984 0 8.59513e-06)
(0.0110972 0 -2.37358e-05)
(0.0111008 0 -5.59682e-05)
(0.0111092 0 -8.85214e-05)
(0.0111224 0 -0.000121828)
(0.0111406 0 -0.000156339)
(0.0111639 0 -0.000192527)
(0.0111926 0 -0.000230898)
(0.0112268 0 -0.000272)
(0.0112671 0 -0.000316428)
(0.0113137 0 -0.000364842)
(0.0113672 0 -0.000417978)
(0.0114281 0 -0.000476668)
(0.0114972 0 -0.000541855)
(0.0115752 0 -0.000614623)
(0.0116629 0 -0.000696222)
(0.0117614 0 -0.000788109)
(0.0118717 0 -0.00089199)
(0.011995 0 -0.00100988)
(0.0121326 0 -0.00114416)
(0.0122861 0 -0.00129768)
(0.0124569 0 -0.00147389)
(0.0126467 0 -0.00167694)
(0.0128573 0 -0.0019119)
(0.0130903 0 -0.00218499)
(0.0133474 0 -0.00250392)
(0.0136295 0 -0.00287825)
(0.0139372 0 -0.00331996)
(0.0142696 0 -0.00384404)
(0.0146233 0 -0.00446927)