/*--------------------------------*- C++ -*----------------------------------*\
  =========                 |
  \\      /  F ield         | OpenFOAM: The Open Source CFD Toolbox
   \\    /   O peration     | Website:  https://openfoam.org
    \\  /    A nd           | Version:  13
     \\/     M anipulation  |
\*---------------------------------------------------------------------------*/
FoamFile
{
    format      ascii;
    class       volScalarField;
    location    "124.831886";
    object      T;
}
// * * * * * * * * * * * * * * * * * * * * * * * * * * * * * * * * * * * * * //

dimensions      [0 0 0 1 0 0 0];

internalField   nonuniform List<scalar> 
5712
(
1009.7
1009.46
1009.07
1008.71
1008.15
1007.78
1006.91
1006.61
1007.2
1006.85
1008.17
1007.82
1008.9
1008.56
1009.45
1009.2
1007.83
1007.34
1007.21
1006.54
1006.32
1005.71
1005.75
1004.98
1010.47
1011.78
1010.22
1011.44
1009.87
1011.12
1009.48
1010.66
1008.51
1009.23
1007.84
1008.75
1010.31
1009.55
1006.45
1005.33
1005.8
1004.98
1005.09
1004.15
1004.33
1003.63
1007.75
1006.58
1007.05
1006.18
1008.81
1007.67
1013.28
1014.21
1012.66
1013.63
1012.61
1013.77
1011.89
1012.96
1011.64
1013.21
1010.5
1011.96
1009.62
1011.06
1008.61
1010.08
1007.42
1007.2
1006.44
1006.32
1005.43
1005.15
1004.65
1004.38
1008.2
1008.44
1009.35
1009.37
1005.62
1005.61
1004.88
1005.02
1003.96
1003.74
1003.32
1003.2
1007.26
1007.67
1006.43
1007.05
1009.95
1011.7
1010.57
1012.54
1011.19
1012.98
1011.55
1013.59
1008.93
1010.63
1009.77
1011.7
1008.02
1009.7
1009.15
1011.04
1015.45
1017.45
1015.78
1017.76
1014.82
1016.69
1015.44
1017.33
1013.78
1015.22
1014.85
1016.41
1008.81
1006.44
1010.99
1012.64
1014.47
1006.8
1009.31
1011.92
1013.68
1015.65
1006.14
1008.36
1010.55
1012.64
1014.73
1019.31
1020.24
1020.3
1021.13
1018.36
1019.43
1019.66
1020.55
1016.71
1017.91
1018.55
1019.61
1007.37
1008.34
1010.13
1011.45
1012.69
1014.06
1014.75
1016.1
1017.51
1018.87
1006.56
1007.33
1009.06
1010.42
1011.44
1012.99
1013.83
1015.51
1016.9
1018.68
1007.85
1009.37
1006.78
1008.12
1005.4
1005.86
1004.45
1004.72
1009.29
1011.08
1010.34
1012.25
1005.88
1007.22
1005.3
1006.58
1003.7
1003.96
1003.16
1003.37
1008.34
1010.16
1007.75
1009.53
1012.19
1014.37
1015.85
1018.5
1013.05
1015.34
1016.42
1019.03
1011.41
1013.51
1015.3
1017.9
1010.67
1012.8
1014.51
1016.98
1020.58
1021.06
1021.91
1020.74
1020.98
1021.76
1019.97
1020.54
1021.44
1020.27
1020.55
1021.4
1018.71
1019.45
1020.44
1019.57
1019.97
1020.9
1009.54
1010.91
1012.41
1012.87
1014.1
1015.44
1015.39
1016.47
1017.68
1017.19
1018.12
1019.28
1019.02
1019.55
1020.65
1008.44
1009.98
1011.67
1012.25
1013.89
1015.58
1014.86
1016.33
1017.88
1017
1018.13
1019.52
1019.02
1019.69
1020.95
1003.7
1003.21
1003.27
1002.65
1004.88
1004.27
1004.39
1003.64
1003.54
1002.6
1003.42
1002.55
1003.24
1002.41
1003.03
1002.26
1002.35
1002.75
1002.07
1002.55
1002.21
1001.88
1002.18
1001.64
1003.07
1002.46
1002.08
1001.55
1001.69
1001.2
1001.69
1001.18
1001.66
1000.83
1001.82
1001.05
1001.52
1000.67
1001.56
1000.79
1001.38
1000.47
1001.16
1000.34
1000.99
1000.29
1000.57
1000
1002.58
1002.16
1002.03
1001.57
1003.8
1003.43
1003.16
1002.77
1001.26
1000.72
1001.73
1001.23
1001.51
1001.08
1001
1000.64
1002.57
1002.21
1002
1001.72
1000.8
1000.28
1000.34
999.9
1000.61
999.928
1000.17
999.783
1000.99
1000.24
1000.61
1000.15
1000.25
999.652
999.787
999.47
999.843
999.357
999.455
999.201
1001.71
1002.14
1000.92
1001.35
1001.68
1002.13
1000.85
1001.3
1001.64
1002.04
1000.75
1001.15
1002.99
1004.46
1002.09
1001.37
1000.62
1004.78
1003.33
1002.49
1001.78
1000.97
1004.16
1002.73
1001.72
1001.05
1000.52
1002.86
1003.87
1002.08
1003.05
1002.79
1003.75
1001.96
1002.89
1002.62
1003.53
1001.72
1002.58
1005.2
1006
1003.65
1004.45
1002.79
1003.6
1002.12
1002.94
1001.35
1002.17
1004.41
1004.88
1002.95
1003.41
1001.96
1002.51
1001.34
1002
1000.88
1001.7
1002.08
1002.25
1001.48
1001.5
1003.4
1003.53
1002.68
1002.61
1000.73
1000.94
1001.24
1001.59
1001.03
1000.93
1000.6
1000.46
1002.12
1001.94
1001.64
1001.42
1000.32
1000.43
999.943
1000.02
1000.28
1000.71
1000.11
1000.77
1000.74
1001.29
1000.46
1001.21
999.907
1000.24
999.802
1000.38
999.596
999.891
999.53
1000.04
1005.25
1006.64
1007.99
1004.74
1006.31
1007.66
1005.05
1006.46
1007.83
1004.5
1006.08
1007.48
1004.74
1006.12
1007.51
1004.12
1005.76
1007.26
1007.08
1008.43
1009.92
1005.54
1006.93
1008.44
1004.7
1006.14
1007.67
1004.1
1005.53
1007.01
1003.7
1005.43
1007.05
1005.73
1007.2
1008.89
1004.3
1005.77
1007.45
1003.51
1005.06
1006.78
1003.18
1004.8
1006.53
1003.3
1005.1
1006.88
1000.51
1001.09
1002.6
1005.4
1000.77
1001.4
1002.96
1005.79
1000.4
1001
1002.52
1005.34
1000.57
1001.24
1002.81
1005.65
1000.25
1000.89
1002.35
1005.09
1000.2
1000.92
1002.46
1005.27
1000.25
1001.05
1002.71
1005.58
1000.1
1000.99
1002.72
1005.61
999.915
1000.68
1002.2
1004.97
999.967
1000.8
1002.18
1004.68
1000.15
1000.84
1002.21
1004.79
1000.23
1000.98
1002.27
1004.62
999.728
1000.57
1002.2
1005.08
999.74
1000.64
1002.11
1004.66
999.537
1000.45
1002.14
1005
999.543
1000.5
1002.01
1004.56
1000.55
1001.07
1002.44
1005.08
1000.9
1001.35
1002.53
1004.83
1000.52
1001.06
1002.41
1005.03
1000.89
1001.36
1002.53
1004.81
1000.47
1001.05
1002.36
1004.9
1000.81
1001.33
1002.51
1004.76
1000.46
1001.08
1002.33
1004.73
1000.74
1001.32
1002.48
1004.67
1000.5
1001.17
1002.37
1004.56
1001.46
1001.84
1002.91
1004.57
1002.09
1002.44
1003.54
1005.12
1001.39
1001.81
1002.88
1004.54
1002.02
1002.4
1003.52
1005.11
1001.27
1001.74
1002.84
1004.51
1001.89
1002.34
1003.49
1005.08
1001.08
1001.64
1002.77
1004.45
1001.72
1002.26
1003.43
1005.04
1000.85
1001.51
1002.68
1004.38
1001.52
1002.16
1003.38
1005
1000.41
1001.27
1002.56
1004.32
1001.02
1001.87
1003.2
1004.88
1000.63
1001.39
1002.62
1004.35
1001.27
1002.01
1003.29
1004.94
1000.22
1001.16
1002.5
1004.29
1000.79
1001.73
1003.12
1004.81
1000.04
1001.04
1002.42
1004.23
1000.59
1001.6
1003.03
1004.74
1009.74
1013.31
1016.38
1018.93
1020.95
1009.98
1013.5
1016.57
1019.12
1021.14
1009.72
1013.29
1016.37
1018.92
1020.94
1009.94
1013.48
1016.55
1019.1
1021.12
1009.67
1013.27
1016.36
1018.91
1020.93
1009.77
1013.33
1016.41
1018.96
1020.99
1009.87
1013.43
1016.52
1019.07
1021.1
1009.82
1013.39
1016.49
1019.05
1021.07
1009.64
1013.25
1016.35
1018.9
1020.93
1009.84
1013.54
1016.64
1019.2
1021.23
1009.68
1013.32
1016.42
1018.97
1020.99
1009.9
1013.6
1016.71
1019.26
1021.28
1009.64
1013.25
1016.35
1018.91
1020.94
1009.86
1013.57
1016.68
1019.24
1021.27
1009.58
1013.22
1016.32
1018.89
1020.92
1009.85
1013.58
1016.7
1019.26
1021.29
1009.78
1013.4
1016.48
1019.03
1021.05
1010.06
1013.74
1016.83
1019.38
1021.39
1009.77
1013.4
1016.49
1019.04
1021.06
1010.05
1013.74
1016.83
1019.38
1021.4
1009.78
1013.43
1016.53
1019.08
1021.1
1010.06
1013.76
1016.85
1019.41
1021.42
1009.86
1013.56
1016.66
1019.22
1021.24
1010.11
1013.82
1016.92
1019.47
1021.49
1010.03
1013.74
1016.84
1019.4
1021.42
1024.64
1025.24
1024.38
1024.99
1023.89
1024.57
1023.27
1024.07
1022.66
1023.58
1021.69
1022.75
1022.18
1023.22
1021.21
1022.23
1020.71
1021.63
1031.16
1038.41
1044.62
1049.53
1052.98
1031.07
1038.37
1044.64
1049.59
1053.09
1031.04
1038.35
1044.58
1049.5
1052.95
1030.96
1038.32
1044.6
1049.58
1053.07
1030.8
1038.21
1044.49
1049.44
1052.89
1030.72
1038.19
1044.52
1049.51
1053.02
1030.47
1038.01
1044.35
1049.34
1052.81
1030.42
1038.01
1044.39
1049.42
1052.94
1030.08
1037.76
1044.18
1049.2
1052.7
1030.09
1037.8
1044.25
1049.31
1052.84
1029.25
1037.15
1043.71
1048.84
1052.37
1029.35
1037.24
1043.83
1048.98
1052.54
1029.67
1037.46
1043.96
1049.03
1052.55
1029.74
1037.54
1044.06
1049.17
1052.71
1028.84
1036.82
1043.46
1048.63
1052.18
1028.9
1036.9
1043.56
1048.75
1052.33
1028.42
1036.49
1043.19
1048.41
1051.99
1028.42
1036.53
1043.26
1048.5
1052.12
1002.27
1003.09
1003.86
1002.92
1004.31
1004.16
1004.1
1003.91
1004.36
1004.1
1005.49
1005.19
1006.13
1005.78
1005.28
1004.99
1004.96
1004.76
1004.92
1004.76
1002.95
1002.78
1005.5
1006.59
1006.96
1007.05
1006.05
1005.35
1006.59
1005.21
1007.7
1009.37
1005.56
1005.98
1007.27
1005.93
1006.48
1006.62
1004.36
1004.34
1005.07
1004.84
1004.5
1004.26
1004.58
1004.98
1006.41
1006.14
1005.59
1005.34
1003.36
1003.1
1003.63
1003.42
1003.83
1003.88
1004.67
1005.62
1004.64
1001.4
1000.64
1000.33
1000.41
1000.89
1001.62
1000.97
1000.71
1000.86
1001.46
1004.67
1004.3
1004.27
1004.61
1005.34
1005.78
1005.43
1005.43
1005.8
1006.55
1006.14
1005.78
1005.77
1006.12
1006.87
1006.24
1005.89
1005.9
1006.26
1007.01
1005.22
1004.85
1004.84
1005.19
1005.92
1003.63
1002.63
1002.12
1002.05
1002.4
1004.74
1003.65
1003.1
1003.03
1003.44
1003.97
1003.2
1002.81
1002.87
1003.44
1005.97
1004.9
1004.4
1004.37
1004.88
1007.67
1006.56
1006.04
1006.01
1006.52
1004.56
1004
1003.8
1004
1004.65
1004.82
1004.12
1003.79
1003.9
1004.51
1006.14
1005.45
1005.14
1005.27
1005.89
1004.99
1004.49
1004.34
1004.59
1005.27
1005.48
1004.92
1004.72
1004.93
1005.59
1005.69
1005.21
1005.07
1005.33
1006.02
1002.79
1001.94
1001.53
1001.52
1001.94
1003.24
1002.6
1002.31
1002.45
1003.06
1004.12
1003.61
1003.45
1003.68
1004.35
1003.93
1003.46
1003.34
1003.61
1004.3
1003.53
1003
1002.82
1003.03
1003.69
1003.34
1002.86
1002.73
1002.98
1003.66
1003.72
1003.3
1003.22
1003.53
1004.24
1004.12
1003.7
1003.63
1003.94
1004.65
1005.55
1005.13
1005.06
1005.37
1006.09
1005.3
1004.91
1004.87
1005.2
1005.93
1004.7
1004.24
1004.13
1004.41
1005.11
1004.47
1004.04
1003.96
1004.26
1004.97
1001.85
1001.06
1000.73
1000.78
1001.23
1002
1001.38
1001.14
1001.3
1001.92
1002.36
1001.65
1001.32
1001.4
1001.92
1002.43
1001.89
1001.7
1001.91
1002.56
1002.88
1002.38
1002.23
1002.47
1003.14
1002.81
1002.19
1001.93
1002.08
1002.69
1003.8
1003.37
1003.29
1003.58
1004.29
1004.78
1004.39
1004.35
1004.68
1005.4
1003.75
1003.29
1003.19
1003.46
1004.16
1002.68
1003.18
1002.72
1003.27
1001.58
1002.15
1001.56
1002.07
1002.75
1002.81
1003.27
1003.15
1001.59
1001.61
1002.1
1001.94
1003.86
1005.04
1004.32
1005.45
1003.86
1004.93
1004.39
1005.44
1004.4
1003.94
1004.13
1003.83
1004.76
1005.23
1003.91
1004.45
1003.64
1004.23
1002.78
1003.34
1002.42
1002.96
1005.02
1005.6
1004.65
1005.32
1005.89
1006.59
1006.15
1007.13
1006.51
1007.45
1006.06
1007.22
1006.52
1007.56
1005.84
1007.42
1006.16
1007.56
1006.76
1008.2
1007.58
1009.06
1003.17
1003.47
1003.41
1003.75
1001.72
1001.82
1001.97
1002.06
1004.82
1005.69
1004.6
1005.39
1003.79
1004.09
1004.29
1004.51
1002.34
1002.36
1002.79
1002.74
1005.21
1006.04
1005.76
1006.51
1006.31
1008.05
1007.74
1009.71
1006.16
1008.03
1007.48
1009.56
1006.7
1008.37
1008.09
1010.01
1007.29
1008.94
1008.59
1010.48
1006.2
1006.75
1007.3
1008.17
1006.11
1006.56
1007.45
1008.29
1005.94
1006.18
1007.72
1008.42
1003.12
1001.62
1004.61
1006.25
1008.39
1001.57
1003
1004.49
1006.21
1008.75
1001.7
1003.32
1005.21
1007.33
1009.58
1007.67
1008.1
1010.51
1011.37
1007.24
1007.67
1010.34
1011.19
1006.6
1006.97
1010.13
1010.99
1001.61
1001.85
1003.13
1003.42
1004.75
1005.05
1006.74
1007.12
1010.4
1011.33
1001.72
1001.97
1003.5
1004.07
1005.57
1006.3
1008.02
1008.9
1011.4
1012.52
1003.93
1004.91
1004.18
1005.19
1001.89
1002.02
1002.1
1002.18
1006.53
1007.98
1006.22
1007.59
1004.39
1005.55
1004.82
1006.05
1002.35
1002.49
1002.72
1002.9
1006.76
1008.38
1007.23
1008.96
1009.41
1011.29
1013.13
1015.53
1008.92
1010.75
1012.46
1014.7
1009.78
1011.73
1013.7
1016.18
1010.12
1012.21
1014.01
1016.44
1008.3
1008.7
1010.87
1010.97
1007.88
1008.33
1010.76
1010.83
1007.27
1007.9
1010.66
1010.76
1002.34
1003.2
1003.95
1004.77
1005.52
1006.24
1007.52
1008.21
1010.87
1010.94
1002.47
1003.4
1004.87
1005.75
1007.02
1007.71
1009.24
1009.59
1011.57
1011.49
999.793
999.756
1000.29
1000.07
1000.58
1000.55
1001.11
1000.88
999.258
998.878
999.734
999.337
999.267
998.913
999.781
999.396
999.685
999.253
999.606
999.29
998.988
999.399
1000.52
1001.06
1001.33
1001.86
1000.28
1000.89
1000.07
1000.62
999.98
1000.54
998.66
998.54
999.105
998.96
998.656
998.501
999.124
998.927
998.672
998.452
999.017
998.745
999.538
999.209
1000.03
999.61
999.618
999.593
999.84
999.746
1000.52
1000.51
1000.76
1000.7
999.24
999.115
999.039
998.993
1000.17
999.98
1000.56
1000.28
1001.1
1000.97
1001.52
1001.31
999.551
999.314
999.921
999.575
998.826
998.568
998.77
998.656
998.644
998.451
998.672
998.591
999.119
998.79
998.94
998.784
999.465
999.063
999.17
998.97
998.468
998.544
998.378
998.504
998.498
998.583
998.381
998.52
998.572
998.642
998.406
998.531
999.539
1000.42
998.973
998.61
998.47
1000.43
999.586
999.032
998.674
998.559
1000.41
999.533
998.958
998.655
998.599
998.861
999.415
998.881
999.477
998.852
999.37
998.851
999.422
998.848
999.309
998.806
999.33
1000.45
1000.68
999.602
999.881
999.1
999.442
998.801
999.199
998.771
999.248
1000.37
1000.48
999.51
999.659
998.987
999.233
998.749
999.111
998.783
999.26
999.483
999.482
999.662
999.566
1000.38
1000.3
1000.6
1000.41
999.121
999.208
998.977
999.14
999.949
999.782
1000.24
1000.09
1000.91
1000.65
1001.24
1001
999.361
999.399
999.624
999.682
998.88
999.164
998.952
999.423
998.77
999.118
998.847
999.348
999.061
999.318
999.107
999.583
999.303
999.578
999.3
999.781
1000.1
1000.74
1000.35
1001.11
1000
1000.7
1000.28
1001.08
999.915
1000.68
1000.17
1001.1
1001.16
1002.01
1000.4
1001.27
999.987
1000.85
999.798
1000.69
1000.1
1001.19
1000.89
1001.87
1000.12
1001.14
999.8
1000.86
999.809
1000.91
1000.2
1001.44
998.938
1000.04
1001.87
1004.9
999.327
1000.42
1002.29
1005.32
998.911
1000
1001.84
1004.89
999.281
1000.37
1002.21
1005.24
998.888
999.975
1001.72
1004.67
999.116
1000.18
1001.95
1004.91
999.529
1000.56
1002.37
1005.35
999.841
1000.82
1002.59
1005.52
998.984
1000.05
1001.75
1004.65
999.175
1000.25
1001.79
1004.39
998.931
1000.02
1001.64
1004.39
999.142
1000.24
1001.75
1004.25
999.135
1000.16
1001.91
1004.86
999.254
1000.3
1001.86
1004.47
999.332
1000.31
1002.04
1004.92
999.378
1000.39
1001.93
1004.49
998.813
999.911
1001.65
1004.53
998.992
1000.09
1001.66
1004.22
998.836
999.933
1001.65
1004.51
999.029
1000.13
1001.69
1004.23
998.893
999.99
1001.64
1004.42
999.075
1000.18
1001.72
1004.22
999.009
1000.11
1001.67
1004.28
999.141
1000.25
1001.75
1004.17
999.172
1000.28
1001.75
1004.13
999.41
1000.51
1002
1003.88
999.962
1001.07
1002.6
1004.37
999.408
1000.51
1002
1003.87
999.961
1001.07
1002.6
1004.38
999.414
1000.52
1002.01
1003.88
999.97
1001.09
1002.62
1004.39
999.423
1000.54
1002.02
1003.88
999.979
1001.11
1002.64
1004.4
999.447
1000.57
1002.03
1003.88
1000
1001.15
1002.67
1004.43
999.607
1000.72
1002.17
1004
1000.11
1001.25
1002.76
1004.52
999.512
1000.64
1002.09
1003.93
1000.04
1001.19
1002.7
1004.46
999.734
1000.82
1002.26
1004.09
1000.24
1001.36
1002.85
1004.59
999.88
1000.93
1002.34
1004.16
1000.4
1001.48
1002.94
1004.67
1009.44
1013.12
1016.26
1018.85
1020.89
1009.69
1013.32
1016.46
1019.04
1021.08
1009.44
1013.12
1016.26
1018.85
1020.89
1009.69
1013.32
1016.45
1019.03
1021.07
1009.43
1013.12
1016.26
1018.85
1020.88
1009.56
1013.2
1016.33
1018.91
1020.94
1009.72
1013.34
1016.46
1019.03
1021.07
1009.76
1013.36
1016.46
1019.03
1021.06
1009.45
1013.14
1016.27
1018.85
1020.89
1009.67
1013.43
1016.58
1019.16
1021.19
1009.46
1013.18
1016.33
1018.91
1020.95
1009.7
1013.48
1016.63
1019.21
1021.24
1009.51
1013.17
1016.3
1018.88
1020.91
1009.75
1013.5
1016.64
1019.22
1021.24
1009.54
1013.19
1016.31
1018.88
1020.91
1009.81
1013.55
1016.68
1019.25
1021.28
1009.46
1013.2
1016.36
1018.95
1020.98
1009.73
1013.54
1016.7
1019.29
1021.33
1009.47
1013.22
1016.38
1018.97
1021
1009.74
1013.55
1016.71
1019.3
1021.34
1009.51
1013.27
1016.43
1019.01
1021.05
1009.77
1013.58
1016.75
1019.33
1021.37
1009.63
1013.41
1016.57
1019.15
1021.19
1009.86
1013.67
1016.82
1019.41
1021.44
1009.81
1013.61
1016.76
1019.34
1021.38
1016.62
1017.3
1016.71
1017.41
1016.92
1017.64
1017.26
1017.97
1017.81
1018.42
1019.2
1019.99
1018.58
1019.27
1019.74
1020.61
1020.22
1021.11
1025.22
1034.13
1041.4
1046.97
1050.74
1025.04
1034.03
1041.4
1047.01
1050.85
1025.31
1034.19
1041.44
1047
1050.77
1025.15
1034.12
1041.45
1047.07
1050.89
1025.49
1034.32
1041.53
1047.07
1050.83
1025.32
1034.24
1041.53
1047.13
1050.94
1025.76
1034.51
1041.67
1047.18
1050.92
1025.58
1034.42
1041.65
1047.23
1051.02
1026.15
1034.77
1041.87
1047.34
1051.06
1025.9
1034.64
1041.82
1047.36
1051.14
1027.09
1035.44
1042.36
1047.73
1051.4
1026.93
1035.34
1042.34
1047.76
1051.47
1026.62
1035.09
1042.1
1047.52
1051.22
1026.37
1034.95
1042.04
1047.53
1051.28
1027.54
1035.79
1042.64
1047.95
1051.59
1027.46
1035.75
1042.64
1048
1051.68
1027.99
1036.14
1042.92
1048.18
1051.79
1027.95
1036.15
1042.95
1048.25
1051.9
1001.57
1002.34
1001.76
1000.96
999.821
1000.31
999.808
1000.36
1000.6
1001.17
1000.6
1001.1
1010.61
1010.45
1010.06
1009.44
1008.6
1007.58
1010.69
1010.54
1010.16
1009.58
1008.81
1007.91
1011.03
1011.65
1010.84
1011.45
1010.4
1010.95
1009.7
1010.13
1008.75
1009.08
1007.65
1008.01
1006.5
1005.48
1004.61
1003.89
1003.35
1002.97
1006.95
1006.02
1005.2
1004.5
1003.97
1003.6
1009.84
1009.54
1009.59
1010
1010.78
1009.68
1009.38
1009.43
1009.84
1010.61
1009.28
1008.98
1009.03
1009.43
1010.21
1008.66
1008.34
1008.39
1008.79
1009.56
1007.81
1007.49
1007.52
1007.92
1008.69
1006.79
1006.46
1006.48
1006.86
1007.62
1009.92
1009.62
1009.67
1010.08
1010.85
1009.76
1009.46
1009.51
1009.92
1010.69
1009.39
1009.08
1009.13
1009.53
1010.3
1008.8
1008.48
1008.53
1008.93
1009.7
1008.02
1007.7
1007.73
1008.13
1008.9
1007.11
1006.78
1006.8
1007.18
1007.94
1010.26
1009.95
1010.01
1010.42
1011.19
1010.88
1010.58
1010.64
1011.05
1011.82
1010.07
1009.77
1009.82
1010.23
1011.01
1010.68
1010.37
1010.43
1010.84
1011.61
1009.63
1009.32
1009.37
1009.78
1010.55
1010.17
1009.87
1009.92
1010.32
1011.1
1008.92
1008.61
1008.65
1009.05
1009.82
1009.35
1009.04
1009.08
1009.49
1010.25
1007.96
1007.64
1007.68
1008.07
1008.84
1008.3
1007.98
1008.01
1008.4
1009.17
1006.85
1006.52
1006.54
1006.92
1007.68
1007.21
1006.87
1006.89
1007.27
1008.03
1005.69
1005.34
1005.35
1005.71
1006.46
1004.65
1004.28
1004.25
1004.59
1005.32
1003.75
1003.33
1003.27
1003.58
1004.29
1002.98
1002.52
1002.4
1002.67
1003.36
1002.39
1001.87
1001.72
1001.95
1002.62
1001.97
1001.43
1001.25
1001.47
1002.12
1006.14
1005.79
1005.79
1006.16
1006.91
1005.2
1004.82
1004.8
1005.15
1005.88
1004.35
1003.94
1003.89
1004.21
1004.93
1003.62
1003.19
1003.1
1003.4
1004.1
1003.06
1002.6
1002.48
1002.76
1003.45
1002.68
1002.2
1002.07
1002.33
1003.02
1010.54
1010.23
1009.68
1008.91
1007.92
1006.75
1010.61
1010.31
1009.79
1009.06
1008.15
1007.12
1010.95
1011.57
1010.61
1011.2
1010.01
1010.53
1009.14
1009.55
1008.03
1008.33
1006.76
1007.05
1005.53
1004.42
1003.53
1002.94
1002.69
1002.73
1006.06
1005.09
1004.29
1003.73
1003.44
1003.41
1009.77
1009.46
1009.52
1009.93
1010.7
1009.45
1009.15
1009.2
1009.62
1010.39
1008.91
1008.6
1008.65
1009.06
1009.84
1008.13
1007.82
1007.87
1008.28
1009.05
1007.14
1006.82
1006.86
1007.26
1008.03
1005.97
1005.64
1005.68
1006.07
1006.83
1009.84
1009.54
1009.59
1010.01
1010.78
1009.54
1009.24
1009.29
1009.7
1010.47
1009.02
1008.71
1008.76
1009.17
1009.94
1008.28
1007.97
1008.02
1008.42
1009.19
1007.37
1007.05
1007.09
1007.49
1008.26
1006.33
1006.01
1006.04
1006.43
1007.19
1010.18
1009.88
1009.93
1010.34
1011.12
1010.8
1010.5
1010.56
1010.97
1011.74
1009.84
1009.54
1009.59
1010
1010.78
1010.43
1010.13
1010.18
1010.59
1011.37
1009.24
1008.93
1008.99
1009.4
1010.17
1009.76
1009.46
1009.51
1009.92
1010.69
1008.37
1008.06
1008.11
1008.52
1009.29
1008.77
1008.46
1008.51
1008.92
1009.69
1007.26
1006.94
1006.98
1007.39
1008.16
1007.55
1007.24
1007.28
1007.68
1008.45
1005.97
1005.65
1005.68
1006.08
1006.84
1006.26
1005.94
1005.97
1006.37
1007.13
1004.74
1004.4
1004.42
1004.8
1005.55
1003.61
1003.25
1003.25
1003.61
1004.35
1002.7
1002.31
1002.27
1002.61
1003.33
1002.06
1001.63
1001.54
1001.84
1002.54
1001.75
1001.26
1001.13
1001.38
1002.06
1001.74
1001.21
1001.04
1001.26
1001.92
1005.26
1004.93
1004.94
1005.32
1006.07
1004.27
1003.92
1003.91
1004.27
1005.01
1003.46
1003.07
1003.04
1003.38
1004.1
1002.87
1002.45
1002.39
1002.7
1003.41
1002.55
1002.1
1002.01
1002.29
1002.99
1002.5
1002.02
1001.9
1002.17
1002.85
1002.53
1002.46
1004.28
1005.53
1005.65
1005.92
1004.77
1001.84
1002.21
1002.07
1003.08
1003.03
1002.84
1003.67
1003.83
1004.32
1001.77
1001.95
1002.88
1002.97
1002.42
1002.57
1003.25
1003.43
1004.59
1004.58
1003.63
1003.62
1002.13
1002.2
1001.79
1002.17
1002.32
1001.92
1003.17
1004.18
1002.94
1001.01
1000.29
1000.01
1000.11
1000.61
1001.31
1000.68
1000.44
1000.6
1001.21
1003.48
1003.13
1003.13
1003.49
1004.23
1004.74
1004.41
1004.43
1004.81
1005.57
1004.85
1004.51
1004.53
1004.9
1005.66
1005.13
1004.8
1004.82
1005.21
1005.96
1003.97
1003.63
1003.64
1004.01
1004.75
1000.51
999.857
999.618
999.754
1000.25
1000.91
1000.29
1000.08
1000.24
1000.79
1001.07
1000.53
1000.36
1000.58
1001.23
1001.9
1001.34
1001.18
1001.39
1002.01
1002.16
1001.74
1001.66
1001.97
1002.67
1001.9
1001.42
1001.3
1001.57
1002.25
1002.83
1002.43
1002.39
1002.71
1003.43
1002.97
1002.56
1002.5
1002.81
1003.53
1003.49
1003.1
1003.06
1003.4
1004.12
1000.45
999.816
999.585
999.728
1000.24
1000.99
1000.48
1000.34
1000.58
1001.25
1002.02
1001.61
1001.55
1001.86
1002.57
1002.13
1001.73
1001.68
1002
1002.72
1001.53
1001.1
1001.01
1001.31
1002
1001.71
1001.29
1001.22
1001.53
1002.24
1002.42
1002.04
1002
1002.34
1003.06
1002.61
1002.24
1002.21
1002.56
1003.29
1003.78
1003.41
1003.4
1003.76
1004.49
1003.77
1003.42
1003.42
1003.78
1004.53
1002.8
1002.42
1002.39
1002.73
1003.45
1002.8
1002.43
1002.41
1002.75
1003.48
1000.71
1000.03
999.775
999.897
1000.41
1001.14
1000.58
1000.38
1000.58
1001.22
1000.64
1000.06
999.846
1000.02
1000.59
1001.23
1000.74
1000.61
1000.86
1001.54
1001.43
1000.99
1000.89
1001.18
1001.87
1000.95
1000.44
1000.28
1000.52
1001.18
1002.34
1001.95
1001.92
1002.25
1002.98
1003.37
1003.02
1003.01
1003.37
1004.11
1002.1
1001.71
1001.66
1001.99
1002.71
1003.44
1002.74
1002.44
1002.53
1002.97
1003.85
1002.52
1002.57
1001.4
1001.38
1002.62
1002.73
1001.43
1001.49
1003.75
1005.05
1003.76
1004.93
1003.87
1003.81
1004.71
1002.48
1002.54
1001.35
1001.32
1002.6
1002.71
1001.4
1001.48
1003.81
1005.19
1003.82
1005.03
1003.93
1003.84
1004.81
1002.5
1002.56
1001.34
1001.3
1002.64
1002.75
1001.4
1001.49
1003.87
1005.55
1003.88
1005.35
1004.01
1003.91
1005.07
1002.74
1002.81
1001.56
1001.52
1002.9
1003.03
1001.64
1001.74
1004.22
1006
1004.21
1005.78
1004.33
1004.22
1005.46
1003.19
1003.26
1002.02
1001.97
1003.35
1003.51
1002.09
1002.2
1004.68
1006.35
1004.67
1006.18
1004.77
1004.7
1005.87
1004.01
1004.07
1002.85
1002.8
1004.14
1004.29
1002.92
1003.02
1005.42
1006.96
1005.4
1006.81
1005.48
1005.4
1006.49
999.634
999.626
1000.41
1000.41
999.644
999.661
1000.43
1000.46
999.082
998.672
999.107
998.733
999.115
999.187
998.858
999.575
999.579
1000.36
1000.35
999.614
999.651
1000.39
1000.43
999.001
998.671
999.043
998.749
999.085
999.184
998.884
999.551
999.57
1000.34
1000.32
999.627
999.684
1000.4
1000.46
999.042
998.844
999.098
998.915
999.171
999.276
999.04
999.771
999.801
1000.56
1000.53
999.873
999.954
1000.63
1000.7
999.317
999.243
999.384
999.31
999.486
999.614
999.429
1000.24
1000.27
1001.02
1000.98
1000.36
1000.47
1001.09
1001.17
999.834
999.83
999.907
999.883
1000.02
1000.17
999.982
1001.09
1001.13
1001.86
1001.83
1001.22
1001.32
1001.93
1002.01
1000.7
1000.6
1000.77
1000.66
1000.86
1000.99
1000.77
1009.74
1009.51
1009.07
1008.71
1008.15
1007.79
1006.92
1006.62
1007.2
1006.85
1008.18
1007.83
1008.91
1008.57
1009.5
1009.26
1007.83
1007.34
1007.21
1006.54
1006.33
1005.71
1005.76
1004.98
1010.51
1011.8
1010.27
1011.48
1009.88
1011.12
1009.49
1010.67
1008.52
1009.23
1007.84
1008.75
1010.32
1009.56
1006.45
1005.34
1005.8
1004.98
1005.09
1004.15
1004.33
1003.63
1007.75
1006.58
1007.05
1006.18
1008.81
1007.67
1013.3
1014.23
1012.7
1013.66
1012.62
1013.78
1011.89
1012.96
1011.65
1013.21
1010.5
1011.96
1009.62
1011.07
1008.61
1010.08
1007.42
1007.2
1006.44
1006.32
1005.43
1005.16
1004.65
1004.38
1008.2
1008.44
1009.35
1009.37
1005.62
1005.61
1004.89
1005.02
1003.96
1003.74
1003.32
1003.2
1007.26
1007.67
1006.43
1007.05
1009.95
1011.7
1010.58
1012.54
1011.19
1012.98
1011.55
1013.59
1008.93
1010.63
1009.78
1011.7
1008.03
1009.7
1009.15
1011.04
1015.47
1017.48
1015.8
1017.78
1014.83
1016.69
1015.44
1017.33
1013.79
1015.22
1014.85
1016.41
1008.81
1006.44
1010.99
1012.64
1014.47
1006.8
1009.31
1011.92
1013.68
1015.65
1006.14
1008.37
1010.55
1012.64
1014.74
1019.34
1020.27
1020.32
1021.14
1018.36
1019.43
1019.66
1020.55
1016.71
1017.91
1018.55
1019.61
1007.37
1008.34
1010.13
1011.45
1012.7
1014.06
1014.75
1016.1
1017.51
1018.87
1006.56
1007.33
1009.07
1010.42
1011.44
1012.99
1013.83
1015.51
1016.91
1018.68
1007.85
1009.37
1006.78
1008.12
1005.4
1005.86
1004.45
1004.72
1009.29
1011.08
1010.35
1012.25
1005.88
1007.22
1005.3
1006.58
1003.7
1003.96
1003.17
1003.37
1008.34
1010.16
1007.75
1009.53
1012.19
1014.37
1015.85
1018.5
1013.05
1015.34
1016.42
1019.03
1011.41
1013.52
1015.3
1017.9
1010.67
1012.8
1014.51
1016.98
1020.61
1021.08
1021.93
1020.75
1020.99
1021.78
1019.97
1020.54
1021.44
1020.27
1020.56
1021.4
1018.71
1019.45
1020.44
1019.57
1019.97
1020.91
1009.54
1010.91
1012.41
1012.87
1014.1
1015.44
1015.39
1016.47
1017.68
1017.19
1018.12
1019.28
1019.02
1019.55
1020.65
1008.44
1009.98
1011.67
1012.25
1013.89
1015.58
1014.87
1016.33
1017.88
1017
1018.13
1019.52
1019.02
1019.69
1020.96
1003.7
1003.21
1003.27
1002.65
1004.88
1004.27
1004.39
1003.64
1003.56
1002.62
1003.44
1002.58
1003.24
1002.41
1003.03
1002.26
1002.35
1002.75
1002.07
1002.55
1002.21
1001.88
1002.18
1001.64
1003.07
1002.46
1002.08
1001.55
1001.69
1001.2
1001.69
1001.18
1001.67
1000.84
1001.84
1001.07
1001.52
1000.67
1001.56
1000.79
1001.38
1000.47
1001.16
1000.34
1000.99
1000.29
1000.57
1000
1002.58
1002.16
1002.03
1001.58
1003.8
1003.44
1003.16
1002.77
1001.26
1000.72
1001.73
1001.23
1001.51
1001.08
1001
1000.64
1002.57
1002.21
1002
1001.72
1000.8
1000.28
1000.34
999.901
1000.61
999.929
1000.17
999.784
1000.99
1000.24
1000.61
1000.15
1000.25
999.652
999.788
999.47
999.844
999.358
999.455
999.201
1001.72
1002.14
1000.92
1001.35
1001.68
1002.13
1000.85
1001.3
1001.64
1002.04
1000.75
1001.15
1002.99
1004.46
1002.09
1001.37
1000.62
1004.78
1003.33
1002.49
1001.78
1000.97
1004.16
1002.73
1001.72
1001.05
1000.52
1002.87
1003.88
1002.08
1003.06
1002.79
1003.75
1001.96
1002.89
1002.62
1003.53
1001.72
1002.58
1005.2
1006
1003.66
1004.45
1002.79
1003.6
1002.12
1002.94
1001.35
1002.17
1004.41
1004.88
1002.95
1003.41
1001.96
1002.51
1001.34
1002.01
1000.89
1001.7
1002.08
1002.25
1001.48
1001.5
1003.4
1003.53
1002.68
1002.61
1000.73
1000.94
1001.24
1001.59
1001.03
1000.93
1000.6
1000.46
1002.13
1001.95
1001.64
1001.42
1000.32
1000.43
999.944
1000.02
1000.28
1000.71
1000.11
1000.77
1000.74
1001.29
1000.46
1001.22
999.907
1000.24
999.802
1000.38
999.596
999.891
999.53
1000.04
1005.26
1006.65
1008
1004.74
1006.32
1007.66
1005.05
1006.46
1007.83
1004.5
1006.08
1007.48
1004.74
1006.12
1007.51
1004.12
1005.76
1007.26
1007.08
1008.43
1009.93
1005.54
1006.93
1008.44
1004.7
1006.14
1007.67
1004.1
1005.53
1007.01
1003.7
1005.43
1007.05
1005.73
1007.2
1008.89
1004.3
1005.77
1007.45
1003.51
1005.06
1006.78
1003.18
1004.8
1006.53
1003.3
1005.1
1006.88
1000.51
1001.1
1002.6
1005.41
1000.78
1001.41
1002.97
1005.8
1000.4
1001
1002.52
1005.34
1000.57
1001.24
1002.81
1005.65
1000.25
1000.89
1002.35
1005.09
1000.2
1000.92
1002.46
1005.26
1000.26
1001.05
1002.71
1005.58
1000.1
1000.99
1002.72
1005.61
999.915
1000.68
1002.2
1004.97
999.967
1000.8
1002.18
1004.68
1000.15
1000.84
1002.21
1004.79
1000.23
1000.98
1002.27
1004.62
999.728
1000.57
1002.2
1005.08
999.74
1000.64
1002.11
1004.66
999.537
1000.45
1002.14
1005
999.543
1000.5
1002.01
1004.56
1000.55
1001.07
1002.44
1005.08
1000.9
1001.35
1002.53
1004.83
1000.52
1001.06
1002.41
1005.03
1000.89
1001.36
1002.53
1004.81
1000.47
1001.05
1002.36
1004.9
1000.81
1001.33
1002.51
1004.76
1000.46
1001.09
1002.33
1004.73
1000.74
1001.32
1002.48
1004.67
1000.5
1001.17
1002.37
1004.56
1001.46
1001.84
1002.91
1004.57
1002.09
1002.43
1003.53
1005.12
1001.39
1001.81
1002.88
1004.54
1002.02
1002.4
1003.52
1005.11
1001.27
1001.74
1002.84
1004.51
1001.89
1002.34
1003.49
1005.08
1001.08
1001.64
1002.77
1004.45
1001.72
1002.26
1003.43
1005.04
1000.85
1001.52
1002.68
1004.38
1001.52
1002.16
1003.38
1005
1000.41
1001.27
1002.56
1004.32
1001.02
1001.87
1003.2
1004.88
1000.63
1001.39
1002.62
1004.35
1001.27
1002.01
1003.29
1004.94
1000.23
1001.16
1002.5
1004.29
1000.79
1001.73
1003.12
1004.81
1000.04
1001.04
1002.42
1004.23
1000.59
1001.6
1003.03
1004.74
1009.75
1013.31
1016.38
1018.93
1020.95
1009.99
1013.51
1016.58
1019.12
1021.14
1009.72
1013.29
1016.37
1018.92
1020.94
1009.94
1013.47
1016.55
1019.1
1021.12
1009.67
1013.27
1016.36
1018.91
1020.93
1009.77
1013.33
1016.41
1018.96
1020.98
1009.87
1013.43
1016.52
1019.07
1021.1
1009.82
1013.39
1016.49
1019.05
1021.07
1009.64
1013.25
1016.35
1018.9
1020.93
1009.84
1013.54
1016.64
1019.2
1021.22
1009.68
1013.32
1016.42
1018.97
1020.99
1009.9
1013.6
1016.71
1019.26
1021.28
1009.64
1013.25
1016.35
1018.91
1020.94
1009.86
1013.57
1016.68
1019.24
1021.27
1009.58
1013.22
1016.32
1018.89
1020.92
1009.85
1013.57
1016.7
1019.26
1021.29
1009.77
1013.39
1016.48
1019.03
1021.05
1010.06
1013.73
1016.82
1019.37
1021.39
1009.77
1013.4
1016.49
1019.04
1021.06
1010.05
1013.74
1016.83
1019.38
1021.4
1009.78
1013.43
1016.53
1019.08
1021.1
1010.06
1013.76
1016.85
1019.41
1021.42
1009.86
1013.56
1016.66
1019.22
1021.24
1010.11
1013.82
1016.92
1019.47
1021.49
1010.03
1013.74
1016.84
1019.4
1021.42
1024.66
1025.25
1024.38
1024.99
1023.89
1024.57
1023.27
1024.07
1022.66
1023.58
1021.69
1022.75
1022.18
1023.22
1021.21
1022.23
1020.71
1021.63
1031.17
1038.42
1044.62
1049.54
1052.98
1031.07
1038.37
1044.64
1049.59
1053.09
1031.04
1038.35
1044.58
1049.5
1052.95
1030.96
1038.32
1044.6
1049.58
1053.07
1030.8
1038.21
1044.49
1049.44
1052.89
1030.72
1038.19
1044.52
1049.51
1053.02
1030.47
1038.01
1044.35
1049.34
1052.81
1030.42
1038.01
1044.39
1049.42
1052.94
1030.08
1037.76
1044.18
1049.21
1052.7
1030.1
1037.8
1044.25
1049.31
1052.84
1029.25
1037.15
1043.72
1048.84
1052.37
1029.35
1037.25
1043.83
1048.98
1052.54
1029.67
1037.46
1043.96
1049.03
1052.55
1029.74