/*--------------------------------*- C++ -*----------------------------------*\
  =========                 |
  \\      /  F ield         | OpenFOAM: The Open Source CFD Toolbox
   \\    /   O peration     | Website:  https://openfoam.org
    \\  /    A nd           | Version:  12
     \\/     M anipulation  |
\*---------------------------------------------------------------------------*/
FoamFile
{
    format      ascii;
    class       volScalarField;
    location    "190";
    object      T;
}
// * * * * * * * * * * * * * * * * * * * * * * * * * * * * * * * * * * * * * //

dimensions      [];

internalField   nonuniform List<scalar> 
4480
(
3.41251e-11
6.80244e-09
1.66238e-05
0.00138793
0.0134108
0.0454114
0.0945779
0.152832
0.213093
0.270834
0.323689
0.370706
0.411741
0.447073
0.477159
0.502516
0.523655
0.541051
0.555121
0.566235
0.574713
0.580829
0.584815
0.58687
0.587161
0.585835
0.583016
0.579378
0.575693
0.571941
0.568103
0.564157
0.560082
0.555858
0.551463
0.546877
0.542075
0.537034
0.531726
0.526127
0.520208
0.513935
0.507277
0.5002
0.492664
0.484626
0.476042
0.466864
0.457034
0.446487
0.43516
0.422973
0.409831
0.395639
0.380284
0.363649
0.345619
0.326094
0.305006
0.28236
0.258251
0.232906
0.206694
0.180132
0.153851
0.128543
0.104884
0.083459
0.0646891
0.0487996
0.0358065
0.0255461
0.0177195
0.0119505
0.00783855
0.00500238
0.00310766
0.00188049
0.00110913
0.000638102
0.000358369
0.000196633
0.000105494
5.7297e-05
3.23465e-05
1.93542e-05
1.23881e-05
8.44986e-06
6.06778e-06
4.52883e-06
3.48215e-06
2.74606e-06
2.21846e-06
1.83681e-06
1.56027e-06
1.36127e-06
1.22119e-06
1.12774e-06
1.07336e-06
1.05424e-06
1.06991e-06
1.12337e-06
1.22172e-06
1.3777e-06
1.61236e-06
1.95971e-06
2.47482e-06
3.24783e-06
4.42878e-06
6.27194e-06
9.21633e-06
1.40339e-05
2.21046e-05
3.59335e-05
6.0121e-05
0.000103199
0.000181084
0.000323572
0.000586645
0.00107747
0.00201372
0.00387777
0.00778695
0.0167409
0.0424952
0.113574
0.210758
0.339588
0.259236
0.0623172
0.0155782
0.00243236
0.000324519
4.22526e-05
4.73233e-06
4.10623e-07
2.55081e-08
9.16964e-10
1.4609e-11
5.73516e-14
2.55874e-11
7.1652e-07
0.000413855
0.0134005
0.0685831
0.160427
0.26428
0.362766
0.448487
0.520052
0.578699
0.626446
0.665297
0.696954
0.722779
0.743852
0.761009
0.774904
0.786053
0.79487
0.80168
0.80674
0.810264
0.812417
0.813337
0.81313
0.811886
0.809506
0.80608
0.801703
0.796464
0.790454
0.783758
0.776455
0.768614
0.760304
0.751582
0.742497
0.733088
0.723392
0.713434
0.703233
0.692797
0.682133
0.67124
0.660105
0.648718
0.637055
0.62509
0.61279
0.600117
0.587027
0.573464
0.559367
0.544668
0.529285
0.513137
0.496123
0.478148
0.45912
0.438948
0.417575
0.394965
0.371133
0.346145
0.320131
0.29328
0.265857
0.238193
0.210671
0.183718
0.157783
0.133302
0.110671
0.0902083
0.0721336
0.0565499
0.0434432
0.0326946
0.0240998
0.0173987
0.0123035
0.00852358
0.00581757
0.00393081
0.00264057
0.00177252
0.00119573
0.000815429
0.000565334
0.000400373
0.000290662
0.00021677
0.000166232
0.000131113
0.000106362
8.87546e-05
7.6209e-05
6.73759e-05
6.1382e-05
5.76786e-05
5.59545e-05
5.60922e-05
5.81533e-05
6.23975e-05
6.93291e-05
7.97948e-05
9.51448e-05
0.000117509
0.000150248
0.000198708
0.000271482
0.000382529
0.000554735
0.000825931
0.00125906
0.00195941
0.00310406
0.00499333
0.00814492
0.0134759
0.02265
0.0386638
0.0667593
0.115308
0.191833
0.290393
0.384113
0.298895
0.0941739
0.0258469
0.00607283
0.00122106
0.00020769
2.90788e-05
3.10135e-06
2.36091e-07
1.06795e-08
2.2587e-10
1.42024e-12
9.7174e-09
2.11001e-05
0.00387686
0.0556369
0.176817
0.318723
0.445762
0.547333
0.625114
0.684231
0.72963
0.765105
0.793295
0.815998
0.834434
0.849468
0.861726
0.871684
0.879714
0.88611
0.891111
0.894904
0.897647
0.899463
0.900451
0.900689
0.90024
0.899025
0.897018
0.894258
0.890782
0.886616
0.881794
0.876338
0.870285
0.863662
0.856506
0.848848
0.840723
0.832165
0.823205
0.813874
0.804201
0.794207
0.783913
0.773339
0.762493
0.751384
0.740013
0.72838
0.716477
0.704291
0.6918
0.678982
0.665808
0.652234
0.638221
0.623712
0.608646
0.592956
0.576569
0.559407
0.541389
0.522442
0.502496
0.481491
0.459392
0.436184
0.411885
0.386559
0.360306
0.333293
0.305729
0.277882
0.250062
0.222618
0.195913
0.17031
0.14615
0.12373
0.103283
0.0849707
0.0688693
0.0550608
0.0434906
0.0339767
0.0262926
0.0201902
0.0154187
0.0117398
0.00893752
0.00682454
0.00524398
0.00406838
0.00319716
0.0025527
0.00207633
0.00172454
0.00146555
0.00127647
0.00114113
0.00104841
0.000991029
0.000964772
0.000968085
0.00100193
0.00107001
0.00117939
0.00134158
0.00157431
0.00190442
0.00237224
0.00303837
0.00399402
0.00537678
0.0073944
0.0103609
0.0147502
0.0212774
0.0310182
0.0455773
0.0672784
0.0992408
0.145045
0.20746
0.285224
0.367363
0.424711
0.343088
0.133325
0.0430598
0.0120622
0.0028926
0.000579549
9.50841e-05
1.18801e-05
1.06957e-06
5.86997e-08
1.57957e-09
1.36502e-11
4.75068e-07
0.000275681
0.0196038
0.143326
0.322425
0.480656
0.597773
0.679855
0.737642
0.779785
0.811951
0.837489
0.858292
0.875442
0.889623
0.901322
0.910923
0.918739
0.925043
0.930062
0.93399
0.936989
0.939191
0.940708
0.94162
0.941995
0.941885
0.941256
0.940083
0.938388
0.936181
0.93347
0.93026
0.926552
0.922348
0.917654
0.912477
0.90682
0.900701
0.89413
0.887127
0.879708
0.871892
0.863704
0.85516
0.846285
0.837094
0.827608
0.817839
0.807802
0.797506
0.786955
0.776155
0.765101
0.753791
0.742212
0.73035
0.718178
0.705676
0.692805
0.679528
0.665793
0.651552
0.636742
0.621296
0.605146
0.588222
0.570446
0.551756
0.532086
0.511388
0.489634
0.466815
0.442955
0.418112
0.392384
0.365912
0.338879
0.311507
0.284054
0.256808
0.230071
0.204148
0.179396
0.156193
0.134762
0.115262
0.0977824
0.082341
0.0688934
0.0573418
0.0475477
0.039345
0.0325527
0.0269872
0.0224702
0.0188368
0.0159386
0.0136471
0.0118536
0.0104688
0.0094214
0.00865672
0.00813479
0.00782926
0.00772643
0.00782543
0.00813879
0.0086946
0.00954001
0.0107467
0.012419
0.0147056
0.0178155
0.0220402
0.0277831
0.0355973
0.0462317
0.0606824
0.0802383
0.106488
0.141209
0.18601
0.241548
0.306209
0.374084
0.431909
0.45497
0.379185
0.176906
0.0656909
0.0208923
0.0056473
0.00126905
0.000233692
3.288e-05
3.37088e-06
2.1525e-07
6.98332e-09
7.65243e-11
9.27835e-06
0.00202306
0.0640808
0.272573
0.475277
0.616159
0.705744
0.763523
0.803349
0.833297
0.857528
0.877914
0.895217
0.909803
0.921945
0.931918
0.940008
0.946491
0.951619
0.955621
0.958696
0.961005
0.962687
0.963845
0.964565
0.964908
0.964919
0.964586
0.963863
0.962764
0.961297
0.959463
0.957264
0.954694
0.951749
0.948423
0.944707
0.940602
0.936101
0.93121
0.925926
0.92026
0.914215
0.907807
0.901045
0.893946
0.886526
0.8788
0.870785
0.862498
0.853953
0.845165
0.836145
0.826903
0.817449
0.807788
0.797918
0.787836
0.777541
0.767017
0.756251
0.745221
0.733903
0.722263
0.710257
0.697849
0.68498
0.671593
0.657628
0.643015
0.627685
0.611564
0.594588
0.576691
0.557819
0.53793
0.517002
0.495032
0.472042
0.448093
0.423268
0.39769
0.371518
0.344937
0.318287
0.291848
0.265907
0.240747
0.216634
0.193803
0.172449
0.152717
0.134707
0.118464
0.103985
0.0912285
0.080117
0.0705484
0.0624042
0.0555587
0.0498859
0.0452667
0.041594
0.0387763
0.0367416
0.0354399
0.0348456
0.0349607
0.0358187
0.0374894
0.0400851
0.0437711
0.0487754
0.0554041
0.0640569
0.0752438
0.089601
0.107895
0.13101
0.15989
0.195407
0.238107
0.287758
0.342693
0.398926
0.449016
0.480557
0.474643
0.401169
0.220228
0.0920138
0.0325353
0.00970343
0.00239321
0.000483785
7.48625e-05
8.51403e-06
6.12954e-07
2.30275e-08
3.03448e-10
0.000100065
0.00964881
0.151799
0.421643
0.607136
0.712651
0.773563
0.812504
0.841032
0.864631
0.885468
0.903919
0.919844
0.933188
0.944073
0.95277
0.959592
0.96485
0.968837
0.971802
0.973964
0.975503
0.976564
0.977259
0.97767
0.977859
0.977861
0.977684
0.977234
0.976523
0.975552
0.974318
0.972819
0.971046
0.96899
0.96664
0.963989
0.961025
0.957742
0.954135
0.950198
0.945928
0.941327
0.9364
0.931152
0.92559
0.919726
0.913571
0.907141
0.900447
0.893507
0.886337
0.87895
0.871362
0.863584
0.855631
0.847513
0.839235
0.830802
0.82222
0.813489
0.804599
0.795547
0.786316
0.77689
0.767249
0.757359
0.74719
0.736704
0.725849
0.714577
0.70283
0.690549
0.677666
0.664111
0.64982
0.634722
0.618757
0.601868
0.584005
0.565137
0.545251
0.524347
0.502412
0.479565
0.455927
0.431648
0.406909
0.38192
0.356914
0.332137
0.307836
0.284254
0.261618
0.240133
0.21997
0.201268
0.184128
0.168614
0.154758
0.142564
0.13201
0.123063
0.115682
0.109823
0.105455
0.102561
0.10115
0.10126
0.102969
0.106401
0.111732
0.1192
0.129108
0.141827
0.15779
0.177482
0.201401
0.230001
0.26358
0.302118
0.345023
0.390795
0.436591
0.477709
0.506975
0.514102
0.485606
0.407755
0.258469
0.119694
0.0464815
0.0151271
0.00404849
0.000887477
0.000148968
1.84891e-05
1.47018e-06
6.22863e-08
9.5493e-10
0.000708623
0.033024
0.281623
0.561663
0.702915
0.773028
0.813162
0.840987
0.86399
0.885225
0.90524
0.923232
0.938487
0.950837
0.960504
0.967869
0.973332
0.977267
0.979997
0.981808
0.982936
0.983581
0.9839
0.984018
0.984018
0.983959
0.98387
0.983763
0.983503
0.983092
0.982523
0.981784
0.980863
0.979746
0.97842
0.976866
0.975075
0.973032
0.970726
0.96815
0.965293
0.96215
0.958721
0.955003
0.951001
0.946714
0.942152
0.937322
0.932238
0.926909
0.921349
0.915576
0.909601
0.903439
0.897109
0.890624
0.883995
0.877239
0.870366
0.863383
0.8563
0.849118
0.841843
0.834471
0.827002
0.819423
0.811723
0.803887
0.795892
0.787716
0.779324
0.770685
0.761751
0.752485
0.742831
0.732734
0.722136
0.710976
0.699193
0.686722
0.673498
0.659467
0.644577
0.628728
0.611914
0.594128
0.575384
0.555725
0.535224
0.513981
0.492127
0.469823
0.447255
0.424625
0.402156
0.380073
0.358606
0.337974
0.318385
0.300031
0.283077
0.26767
0.253932
0.241963
0.231851
0.22367
0.217491
0.213389
0.211449
0.211775
0.214495
0.219765
0.227772
0.238731
0.252874
0.270434
0.291615
0.31654
0.345179
0.377243
0.412049
0.448328
0.484007
0.515933
0.539565
0.548666
0.535174
0.489928
0.406002
0.282918
0.146203
0.0618057
0.0217898
0.00628475
0.00148319
0.000267883
3.59322e-05
3.11708e-06
1.46603e-07
2.56697e-09
0.00369618
0.0869529
0.431708
0.669668
0.76287
0.808005
0.836299
0.858712
0.879631
0.900596
0.920967
0.938921
0.953483
0.964659
0.972913
0.978789
0.982769
0.98526
0.986614
0.987136
0.98709
0.986702
0.986153
0.985577
0.985067
0.984679
0.98444
0.984345
0.984232
0.984086
0.983887
0.983611
0.983236
0.982738
0.982091
0.981274
0.980265
0.97905
0.977613
0.975937
0.974019
0.971846
0.969415
0.966723
0.96377
0.960562
0.9571
0.953391
0.949444
0.945272
0.940884
0.936294
0.931518
0.926571
0.921466
0.916219
0.910848
0.905365
0.899784
0.894119
0.888381
0.882574
0.876714
0.8708
0.864835
0.858825
0.852762
0.846644
0.840457
0.834194
0.827838
0.82137
0.814762
0.807994
0.801026
0.793827
0.786358
0.778573
0.770429
0.761871
0.752847
0.743309
0.733195
0.722432
0.710932
0.698662
0.68558
0.671659
0.656887
0.641272
0.624836
0.607637
0.589752
0.571283
0.552366
0.533158
0.513838
0.494607
0.475677
0.457274
0.439621
0.422947
0.407469
0.3934
0.380938
0.370269
0.361571
0.355005
0.35073
0.348894
0.349645
0.353121
0.359455
0.368765
0.381136
0.396603
0.415116
0.436495
0.460362
0.486072
0.51259
0.538382
0.561243
0.578126
0.584945
0.576473
0.546549
0.489204
0.40171
0.289916
0.169406
0.0773519
0.0293747
0.0090889
0.00229882
0.000444703
6.41166e-05
6.02789e-06
3.12163e-07
6.18744e-09
0.0154958
0.184792
0.567889
0.738233
0.797013
0.828405
0.850825
0.870899
0.891437
0.913128
0.934307
0.95215
0.965713
0.975439
0.982107
0.986392
0.988802
0.989742
0.989577
0.988642
0.987243
0.985646
0.984064
0.982657
0.981529
0.98074
0.980303
0.980194
0.98021
0.980327
0.980507
0.980712
0.980901
0.98104
0.981089
0.981014
0.980789
0.980385
0.979783
0.97897
0.977927
0.976651
0.975129
0.973362
0.971347
0.969087
0.966585
0.963851
0.96089
0.957712
0.954331
0.950756
0.947005
0.94309
0.939026
0.934831
0.930517
0.926102
0.921599
0.917023
0.912388
0.907704
0.902979
0.898225
0.893448
0.888652
0.883841
0.879014
0.874169
0.869305
0.864413
0.859481
0.854501
0.849453
0.844324
0.839091
0.83373
0.828215
0.822513
0.816593
0.810416
0.80395
0.79715
0.789974
0.782314
0.774147
0.765426
0.756106
0.746147
0.735518
0.724202
0.712187
0.699489
0.68613
0.672165
0.657666
0.642731
0.627479
0.612063
0.596648
0.581428
0.566603
0.552395
0.539029
0.526734
0.515737
0.506262
0.498518
0.492706
0.489007
0.487583
0.488564
0.492051
0.498095
0.506688
0.517739
0.531051
0.546269
0.562849
0.579983
0.596525
0.610893
0.620944
0.623856
0.616026
0.59312
0.550506
0.48452
0.395024
0.288852
0.181679
0.0919993
0.0374406
0.0123853
0.00334749
0.000691926
0.000106957
1.08671e-05
6.1768e-07
1.38198e-08
0.0516767
0.328648
0.660829
0.775364
0.816677
0.841294
0.860774
0.879942
0.900902
0.923816
0.945949
0.96337
0.975566
0.983631
0.988648
0.991311
0.992077
0.991322
0.989431
0.986796
0.983789
0.980742
0.97792
0.975516
0.973652
0.972384
0.971718
0.971576
0.971735
0.972146
0.972755
0.973502
0.974325
0.975168
0.975977
0.976707
0.977314
0.977765
0.978031
0.978092
0.977931
0.977533
0.976892
0.976004
0.97487
0.973493
0.971874
0.97002
0.967942
0.965651
0.963154
0.960469
0.957609
0.954586
0.95142
0.948125
0.944713
0.941204
0.937611
0.933946
0.930228
0.926466
0.922672
0.918856
0.915028
0.911194
0.907359
0.90353
0.899703
0.895884
0.892066
0.888252
0.884431
0.880599
0.876744
0.872854
0.868919
0.864918
0.860839
0.856656
0.852351
0.847898
0.84327
0.838441
0.833331
0.827922
0.822173
0.816046
0.809503
0.802514
0.795042
0.787064
0.77856
0.769526
0.759962
0.74989
0.739345
0.728387
0.717092
0.705557
0.693909
0.682285
0.670849
0.659783
0.649274
0.639525
0.630739
0.623116
0.616851
0.612118
0.609069
0.607824
0.608457
0.610987
0.61536
0.62143
0.628934
0.63746
0.646407
0.654932
0.661885
0.66572
0.664414
0.655375
0.635436
0.601017
0.548729
0.476597
0.386119
0.28439
0.184486
0.101637
0.0455141
0.0160522
0.00462703
0.00102092
0.000169081
1.85597e-05
1.1578e-06
2.92598e-08
0.114263
0.465718
0.723024
0.796335
0.829114
0.850092
0.867949
0.886884
0.90868
0.933098
0.956186
0.972784
0.983294
0.989624
0.993025
0.994064
0.993065
0.990379
0.986445
0.981758
0.976798
0.97199
0.96767
0.964079
0.961348
0.959539
0.958634
0.958465
0.958808
0.959587
0.960719
0.962114
0.963686
0.965352
0.967039
0.96868
0.970218
0.971609
0.972819
0.973813
0.974576
0.975091
0.975347
0.975342
0.975075
0.97455
0.973773
0.972752
0.971496
0.970019
0.968331
0.966448
0.964387
0.962158
0.95978
0.957268
0.95464
0.951911
0.949093
0.946206
0.943261
0.940271
0.937249
0.934206
0.93115
0.928091
0.925035
0.921986
0.918953
0.915933
0.912932
0.909947
0.906976
0.904018
0.901065
0.898117
0.89516
0.892191
0.889195
0.886161
0.883079
0.879936
0.876707
0.873385
0.869915
0.866276
0.862444
0.858393
0.854097
0.849522
0.844647
0.83944
0.833881
0.827952
0.821635
0.814932
0.807844
0.800387
0.792593
0.78451
0.776201
0.767744
0.759239
0.750807
0.74257
0.734679
0.727279
0.720528
0.714576
0.709562
0.705608
0.702802
0.701193
0.700778
0.70148
0.703132
0.705456
0.708027
0.710245
0.711278
0.710002
0.704933
0.694156
0.675294
0.645563
0.602059
0.542408
0.465927
0.375176
0.277215
0.183204
0.105165
0.0507858
0.0199475
0.00612322
0.00144211
0.000256024
3.04001e-05
2.08523e-06
5.96816e-08
0.202985
0.570274
0.760064
0.812862
0.838246
0.856269
0.873174
0.892216
0.915075
0.941168
0.965176
0.980515
0.989136
0.993802
0.995691
0.995062
0.992064
0.987064
0.980628
0.973416
0.966069
0.959136
0.953036
0.948055
0.944343
0.941948
0.940826
0.940666
0.941273
0.942536
0.944333
0.946536
0.949023
0.951679
0.954403
0.95711
0.959723
0.962183
0.964443
0.966467
0.968229
0.969716
0.970917
0.971823
0.972443
0.972776
0.972833
0.972623
0.972159
0.971456
0.970527
0.969389
0.968059
0.966552
0.964885
0.963076
0.961142
0.959097
0.95696
0.954742
0.952462
0.95013
0.947759
0.94536
0.942946
0.940522
0.938098
0.93568
0.933273
0.930882
0.928509
0.926155
0.923822
0.921509
0.919214
0.916936
0.914672
0.912412
0.910155
0.907895
0.905625
0.903335
0.901014
0.898656
0.896224
0.893709
0.891086
0.888346
0.885466
0.882425
0.879205
0.875785
0.872144
0.868262
0.864127
0.859722
0.855038
0.850075
0.844838
0.83934
0.833607
0.827678
0.821601
0.815438
0.809263
0.803163
0.797229
0.791563
0.78626
0.78141
0.77709
0.773354
0.770218
0.76765
0.765555
0.763758
0.761971
0.759776
0.756571
0.751541
0.743588
0.731275
0.712788
0.685946
0.648329
0.597636
0.532373
0.45286
0.362381
0.267829
0.178904
0.10536
0.0532106
0.0223517
0.00754593
0.00196565
0.00037457
4.82179e-05
3.64734e-06
1.18665e-07
0.310827
0.644398
0.784109
0.82464
0.84565
0.860999
0.876887
0.896197
0.920225
0.948109
0.972999
0.986675
0.993349
0.996549
0.997036
0.994583
0.989186
0.981318
0.971781
0.961472
0.951242
0.941785
0.933615
0.92706
0.92228
0.919298
0.918025
0.917949
0.918947
0.920861
0.923516
0.926734
0.93035
0.934209
0.938175
0.942135
0.945995
0.949677
0.953125
0.956296
0.959162
0.961703
0.96391
0.965782
0.967321
0.968535
0.969439
0.970041
0.970358
0.97041
0.970212
0.969785
0.969141
0.968306
0.967296
0.966128
0.964821
0.96339
0.961857
0.96023
0.95853
0.956768
0.954957
0.953109
0.951233
0.949342
0.94744
0.945536
0.943638
0.941747
0.93987
0.938009
0.936165
0.934338
0.932533
0.930744
0.928973
0.927218
0.925476
0.923745
0.922017
0.92029
0.918563
0.916824
0.915055
0.913245
0.911383
0.909456
0.907456
0.905364
0.903171
0.900862
0.898418
0.895824
0.89307
0.890138
0.887013
0.883692
0.880163
0.876424
0.872483
0.868348
0.864033
0.859569
0.854984
0.850318
0.845617
0.840934
0.83631
0.831794
0.827414
0.823184
0.819083
0.815056
0.810979
0.806658
0.801795
0.795963
0.788559
0.778761
0.765481
0.747323
0.722557
0.689192
0.645168
0.588748
0.519204
0.437663
0.347918
0.25663
0.172336
0.103085
0.0535802
0.0235256
0.0084432
0.00237871
0.000498521
7.17538e-05
6.1795e-06
2.32011e-07
0.405021
0.717994
0.800723
0.833061
0.850902
0.864966
0.879547
0.898969
0.924195
0.953947
0.979728
0.991398
0.996218
0.998236
0.997364
0.992769
0.984379
0.972924
0.959562
0.945515
0.931875
0.919499
0.908997
0.900729
0.894847
0.891332
0.890037
0.890173
0.891745
0.894528
0.898282
0.90277
0.907766
0.913071
0.918509
0.923936
0.92923
0.934304
0.939091
0.943536
0.947613
0.9513
0.954591
0.957485
0.959992
0.96212
0.963889
0.965314
0.966416
0.967214
0.967732
0.96799
0.968009
0.967811
0.967416
0.966843
0.966115
0.965246
0.964257
0.963162
0.961975
0.960715
0.959392
0.958021
0.956608
0.955168
0.953705
0.95223
0.950748
0.949265
0.947785
0.946311
0.944847
0.943397
0.94196
0.940535
0.939128
0.937732
0.936353
0.934983
0.933628
0.932278
0.930937
0.929599
0.928255
0.926888
0.925497
0.924074
0.92261
0.921098
0.919526
0.917887
0.91617
0.914361
0.912448
0.910419
0.908261
0.905963
0.903514
0.900902
0.898121
0.895167
0.892034
0.888728
0.885253
0.881617
0.87783
0.873903
0.869848
0.865666
0.861349
0.85687
0.852179
0.847182
0.841731
0.835604
0.828482
0.819908
0.809259
0.795696
0.778125
0.755172
0.725199
0.686415
0.637109
0.57609
0.503311
0.420558
0.331972
0.243952
0.164059
0.0989946
0.0523905
0.0236821
0.0088582
0.00263482
0.000590689
9.21689e-05
8.7286e-06
3.66518e-07
0.473908
0.745812
0.812613
0.838951
0.854357
0.867455
0.881943
0.900618
0.927004
0.958674
0.985416
0.994842
0.998041
0.999188
0.996884
0.989625
0.977449
0.961543
0.943553
0.925097
0.907532
0.891884
0.87884
0.868782
0.861833
0.857914
0.85679
0.857335
0.859729
0.863662
0.868813
0.874864
0.881525
0.888541
0.895692
0.902802
0.909727
0.916362
0.922628
0.928471
0.93386
0.938779
0.943222
0.947195
0.950709
0.953784
0.956441
0.958699
0.960589
0.962132
0.963356
0.964284
0.964943
0.965356
0.965546
0.965536
0.965346
0.964996
0.964507
0.963894
0.963172
0.96236
0.96147
0.960514
0.959504
0.95845
0.957361
0.956245
0.955111
0.95396
0.952802
0.951642
0.950479
0.949319
0.948162
0.947013
0.94587
0.944737
0.943611
0.942496
0.941391
0.940296
0.939208
0.938126
0.937048
0.935958
0.934854
0.933735
0.932591
0.931423
0.930219
0.928974
0.927681
0.926333
0.924914
0.923419
0.921833
0.920145
0.918345
0.916414
0.914345
0.912124
0.909734
0.907169
0.904415
0.901459
0.89829
0.894891
0.891245
0.887323
0.883085
0.878476
0.873407
0.867752
0.86133
0.853889
0.84507
0.83438
0.821158
0.804532
0.783393
0.756389
0.721985
0.678594
0.624873
0.560157
0.485001
0.401733
0.314727
0.230081
0.15451
0.0935901
0.0500564
0.0230515
0.0088636
0.00273649
0.000643188
0.000106317
1.07847e-05
4.91301e-07
0.527981
0.766489
0.822141
0.842798
0.856201
0.868534
0.883162
0.901977
0.928657
0.962261
0.990119
0.997198
0.9991
0.999673
0.995702
0.985045
0.968111
0.946785
0.923335
0.89982
0.87787
0.858659
0.842939
0.831094
0.823203
0.819094
0.817911
0.819169
0.822761
0.828256
0.835216
0.843225
0.851912
0.860956
0.870095
0.879119
0.887866
0.89622
0.904097
0.911443
0.918231
0.924447
0.930094
0.935184
0.939737
0.943777
0.947333
0.950434
0.953109
0.95539
0.957309
0.958893
0.960171
0.961171
0.961919
0.96244
0.962756
0.96289
0.962862
0.96269
0.962391
0.961982
0.961478
0.96089
0.960232
0.959515
0.958746
0.957937
0.957093
0.956221
0.955327
0.954414
0.95349
0.952555
0.951614
0.950671
0.949725
0.948778
0.947833
0.946893
0.945954
0.94502
0.944093
0.943172
0.942254
0.941327
0.940393
0.939446
0.938486
0.937508
0.93651
0.935485
0.934426
0.933331
0.932187
0.930988
0.929719
0.928375
0.926941
0.925401
0.923744
0.921946
0.919998
0.917875
0.915554
0.913017
0.910231
0.907167
0.903784
0.900031
0.895843
0.891138
0.885797
0.87966
0.872516
0.864063
0.853901
0.84149
0.82612
0.806876
0.782637
0.75208
0.713784
0.666401
0.60896
0.541293
0.464506
0.381362
0.296362
0.215276
0.144041
0.0872677
0.0469164
0.0218461
0.00855068
0.00270671
0.000657269
0.000113138
1.2052e-05
5.82039e-07
0.570843
0.781129
0.827588
0.844891
0.85654
0.868183
0.883055
0.902973
0.929357
0.964678
0.993889
0.998676
0.999649
0.99989
0.993837
0.978841
0.956036
0.92827
0.89855
0.869393
0.84268
0.819703
0.801259
0.787723
0.779105
0.775119
0.774091
0.776436
0.781628
0.789091
0.798254
0.808586
0.819624
0.830979
0.842342
0.853473
0.864197
0.874387
0.883965
0.892884
0.901118
0.908666
0.915539
0.92176
0.927356
0.932361
0.93681
0.940741
0.94419
0.947193
0.949785
0.952004
0.953879
0.955441
0.95672
0.957744
0.958533
0.959117
0.959515
0.959746
0.959834
0.959788
0.959629
0.95937
0.959022
0.958597
0.958105
0.957554
0.956955
0.956311
0.955633
0.954921
0.954185
0.953423
0.952647
0.951854
0.951047
0.950233
0.949411
0.948583
0.947751
0.946919
0.946085
0.945251
0.944418
0.94358
0.942731
0.941873
0.941004
0.94012
0.93922
0.9383
0.937357
0.936383
0.935374
0.934319
0.933212
0.932041
0.930793
0.929456
0.928012
0.926444
0.92473
0.922848
0.92077
0.918463
0.915895
0.913016
0.909777
0.906109
0.901926
0.897121
0.891547
0.885017
0.877271
0.86797
0.856658
0.84274
0.825454
0.803844
0.776776
0.742981
0.701178
0.650278
0.589695
0.519746
0.442015
0.359607
0.277059
0.199769
0.132947
0.0803424
0.0432431
0.020248
0.00800939
0.00257627
0.000639345
0.000113145
1.24694e-05
6.27325e-07
0.604814
0.791391
0.830505
0.845378
0.855385
0.86635
0.88149
0.90258
0.929997
0.965885
0.996758
0.999496
0.999894
0.999971
0.991246
0.97078
0.940895
0.905678
0.86896
0.833696
0.801952
0.775096
0.75396
0.738911
0.729882
0.726432
0.726264
0.730173
0.737448
0.747329
0.759092
0.77208
0.785735
0.799606
0.813344
0.826692
0.839462
0.851536
0.862835
0.873328
0.883001
0.891865
0.899943
0.907267
0.913878
0.91982
0.925131
0.929861
0.934051
0.937746
0.940982
0.943801
0.946239
0.94833
0.950105
0.951594
0.952828
0.953825
0.954617
0.955217
0.955652
0.955933
0.956082
0.956111
0.956034
0.955861
0.955606
0.955274
0.954878
0.954423
0.953917
0.953363
0.952772
0.952142
0.951484
0.950798
0.950089
0.949359
0.948611
0.947849
0.947078
0.946294
0.945503
0.94471
0.943909
0.943104
0.942283
0.941453
0.94061
0.939754
0.938883
0.937995
0.937085
0.936153
0.935188
0.934185
0.933137
0.932032
0.93086
0.929605
0.928253
0.926786
0.925178
0.923408
0.921444
0.919248
0.916778
0.913985
0.910801
0.907146
0.902921
0.897992
0.892187
0.88528
0.876977
0.866884
0.854491
0.839145
0.820024
0.796143
0.766377
0.729534
0.684506
0.630488
0.567297
0.495696
0.417688
0.336627
0.256995
0.183773
0.121473
0.0730683
0.0392538
0.0184064
0.00731888
0.00237616
0.000597764
0.000107715
1.21432e-05
6.2801e-07
0.631603
0.798406
0.831568
0.844153
0.852724
0.862944
0.878352
0.900755
0.930297
0.966117
0.998743
0.99987
0.999978
0.999995
0.987845
0.96062
0.922398
0.878795
0.834502
0.79282
0.755903
0.725131
0.701385
0.685074
0.67607
0.6732
0.674544
0.680794
0.690932
0.703931
0.718854
0.734909
0.751456
0.768006
0.784197
0.799773
0.814563
0.828463
0.841416
0.853404
0.864434
0.874532
0.883735
0.892088
0.899641
0.906451
0.912563
0.918033
0.922907
0.927238
0.93107
0.934447
0.937402
0.939981
0.942212
0.944129
0.945762
0.947139
0.94828
0.949213
0.949954
0.950526
0.950944
0.951225
0.951378
0.951422
0.951362
0.951212
0.950981
0.950675
0.950302
0.94987
0.949385
0.94885
0.948271
0.947653
0.947001
0.946316
0.945605
0.944871
0.944119
0.943347
0.94256
0.941761
0.940954
0.940139
0.939304
0.938458
0.937598
0.936725
0.935836
0.93493
0.934006
0.933058
0.932082
0.931073
0.93002
0.928916
0.92775
0.926508
0.925174
0.923729
0.922151
0.920413
0.918479
0.916315
0.913874
0.911094
0.907905
0.904209
0.899895
0.894804
0.888738
0.881433
0.872549
0.861635
0.848129
0.831315
0.810327
0.784164
0.751734
0.711957
0.663933
0.607177
0.541898
0.46928
0.391676
0.312585
0.236347
0.167486
0.109833
0.0656505
0.0351201
0.01644
0.00654446
0.00213374
0.0005408
9.85035e-05
1.1262e-05
5.92703e-07
0.652469
0.802797
0.830835
0.840996
0.848506
0.857856
0.873487
0.897306
0.929174
0.966328
0.999828
0.999988
1
1
0.983531
0.948128
0.900328
0.847558
0.795324
0.747117
0.705008
0.670319
0.644034
0.626764
0.618361
0.615031
0.618978
0.628816
0.643008
0.660112
0.678927
0.69852
0.718212
0.737526
0.756137
0.773838
0.790497
0.806056
0.820483
0.833794
0.846015
0.857194
0.867378
0.876628
0.885004
0.89257
0.899384
0.905503
0.910983
0.915876
0.920232
0.924097
0.927512
0.930519
0.933153
0.935447
0.937433
0.939139
0.94059
0.94181
0.94282
0.94364
0.944286
0.944777
0.945125
0.945342
0.945442
0.945436
0.945331
0.945136
0.944862
0.944512
0.944096
0.943618
0.943082
0.942498
0.941867
0.941195
0.940484
0.939745
0.938976
0.93818
0.937365
0.936534
0.935686
0.934827
0.933949
0.933054
0.932144
0.931221
0.93028
0.929325
0.928353
0.927357
0.926337
0.925283
0.924191
0.923051
0.921853
0.920583
0.919224
0.91776
0.916165
0.914411
0.912466
0.91029
0.907829
0.90502
0.901778
0.898001
0.893549
0.888247
0.881861
0.874087
0.864535
0.852703
0.837965
0.819554
0.796574
0.768038
0.732916
0.690285
0.639493
0.580392
0.51358
0.440619
0.364125
0.287645
0.215293
0.151092
0.0982064
0.0582538
0.0309757
0.0144404
0.00573725
0.00187126
0.000475591
8.70743e-05
1.00301e-05
5.33032e-07
0.668332
0.805096
0.828718
0.836563
0.842665
0.850949
0.86672
0.892067
0.926601
0.966523
0.999999
0.999999
0.999998
0.999999
0.978207
0.933105
0.87456
0.812081
0.751842
0.69726
0.650072
0.611408
0.582501
0.56457
0.557501
0.556327
0.563929
0.578304
0.597312
0.619049
0.642038
0.665243
0.687989
0.709859
0.730618
0.750129
0.768341
0.785238
0.800842
0.815195
0.828352
0.840376
0.851332
0.861291
0.870321
0.878494
0.885871
0.892514
0.898486
0.903842
0.908628
0.912899
0.916696
0.920061
0.923028
0.925638
0.927918
0.929899
0.931607
0.933064
0.934293
0.935312
0.936144
0.936802
0.937298
0.937652
0.937868
0.937965
0.937948
0.937826
0.93761
0.937304
0.936922
0.936464
0.935938
0.935351
0.934706
0.934014
0.933273
0.932496
0.931679
0.930836
0.929963
0.929069
0.928155
0.927227
0.926278
0.925312
0.924331
0.923336
0.922327
0.9213
0.920259
0.919198
0.918112
0.916999
0.915849
0.914657
0.913407
0.912089
0.91069
0.909183
0.907551
0.905766
0.903786
0.901572
0.899067
0.896193
0.892867
0.888959
0.884314
0.878726
0.871924
0.863562
0.853194
0.840264
0.824091
0.803874
0.778714
0.747657
0.709796
0.664402
0.611106
0.550113
0.482393
0.40982
0.335185
0.261983
0.194012
0.134761
0.0867497
0.0510125
0.0269237
0.0124766
0.00493559
0.00160564
0.000407747
7.47192e-05
8.62814e-06
4.60278e-07
0.679873
0.805674
0.825364
0.830726
0.8351
0.842084
0.857852
0.884825
0.922403
0.965885
1
1
0.999998
0.999997
0.971795
0.915376
0.845075
0.772699
0.704806
0.644348
0.592329
0.549453
0.517379
0.498969
0.490592
0.494213
0.50904
0.531045
0.556822
0.584045
0.611295
0.637772
0.663029
0.686851
0.709148
0.729901
0.749133
0.766896
0.783247
0.798259
0.81201
0.824573
0.836028
0.846451
0.855922
0.864506
0.872271
0.879289
0.885612
0.891302
0.896407
0.900979
0.905062
0.908696
0.911921
0.914767
0.91727
0.919459
0.92136
0.922994
0.924384
0.925552
0.926515
0.927289
0.92789
0.92833
0.928619
0.928773
0.928802
0.928712
0.928516
0.928217
0.927827
0.927351
0.9268
0.926176
0.925486
0.92474
0.92394
0.923094
0.922206
0.921282
0.920329
0.919349
0.918349
0.917335
0.916297
0.915245
0.914178
0.913098
0.912007
0.910902
0.909785
0.90865
0.907497
0.906317
0.905108
0.903857
0.902554
0.901189
0.899742
0.898197
0.896524
0.894698
0.892676
0.890413
0.88784
0.884878
0.881421
0.877323
0.872403
0.866416
0.859052
0.849916
0.838506
0.824216
0.806327
0.784026
0.756441
0.722705
0.682073
0.634065
0.578618
0.516288
0.448378
0.377006
0.305028
0.235786
0.172688
0.118658
0.0756005
0.0440339
0.0230421
0.0105988
0.00416697
0.00134902
0.000341357
6.24039e-05
7.1959e-06
3.83606e-07
0.687536
0.804785
0.820789
0.823074
0.824913
0.83112
0.846666
0.875331
0.916364
0.964256
0.999997
0.999997
0.999998
0.999996
0.964223
0.894781
0.811964
0.730025
0.655417
0.5901
0.533752
0.486141
0.449207
0.429589
0.421784
0.435703
0.462903
0.495275
0.528311
0.560239
0.590494
0.618908
0.645443
0.670126
0.693017
0.714193
0.733741
0.751752
0.768314
0.783514
0.797444
0.810188
0.821821
0.832425
0.842075
0.850847
0.858803
0.866006
0.872517
0.878391
0.883679
0.888429
0.892684
0.896484
0.899866
0.902863
0.905507
0.907824
0.909844
0.911587
0.913074
0.914325
0.915361
0.916194
0.916838
0.917314
0.917626
0.917788
0.917814
0.917709
0.917486
0.917152
0.916716
0.916186
0.91557
0.914875
0.914106
0.913274
0.912386
0.911445
0.910461
0.909436
0.908382
0.907301
0.906199
0.905083
0.903948
0.9028
0.901643
0.900476
0.8993
0.898119
0.896927
0.895727
0.894512
0.893277
0.892014
0.890716
0.889373
0.887969
0.886488
0.884908
0.883204
0.881341
0.879272
0.876946
0.874283
0.871188
0.867534
0.863151
0.857822
0.85126
0.84311
0.832922
0.82015
0.804149
0.784185
0.759466
0.729192
0.692645
0.649289