/*--------------------------------*- C++ -*----------------------------------*\
  =========                 |
  \\      /  F ield         | OpenFOAM: The Open Source CFD Toolbox
   \\    /   O peration     | Website:  https://openfoam.org
    \\  /    A nd           | Version:  13
     \\/     M anipulation  |
\*---------------------------------------------------------------------------*/
FoamFile
{
    format      ascii;
    class       volScalarField;
    location    "559.831886";
    object      T;
}
// * * * * * * * * * * * * * * * * * * * * * * * * * * * * * * * * * * * * * //

dimensions      [0 0 0 1 0 0 0];

internalField   nonuniform List<scalar> 
5712
(
307.045
307.064
307.096
307.127
307.173
307.204
307.277
307.302
307.254
307.283
307.172
307.201
307.111
307.139
307.065
307.086
307.199
307.239
307.251
307.306
307.325
307.376
307.374
307.439
306.979
306.872
307
306.899
307.029
306.925
307.061
306.963
307.142
307.082
307.197
307.121
306.992
307.055
307.316
307.413
307.371
307.443
307.433
307.515
307.497
307.559
307.207
307.307
307.265
307.341
307.119
307.216
306.748
306.673
306.799
306.722
306.802
306.708
306.863
306.777
306.881
306.755
306.976
306.858
307.051
306.934
307.137
307.018
307.23
307.249
307.314
307.324
307.399
307.421
307.467
307.489
307.167
307.148
307.07
307.068
307.385
307.386
307.45
307.439
307.528
307.546
307.586
307.595
307.247
307.214
307.319
307.267
307.022
306.88
306.973
306.815
306.918
306.774
306.89
306.727
307.108
306.97
307.041
306.885
307.186
307.048
307.095
306.941
306.572
306.411
306.545
306.386
306.622
306.471
306.573
306.42
306.706
306.589
306.62
306.494
307.113
307.311
306.934
306.799
306.652
307.28
307.071
306.857
306.713
306.556
307.336
307.15
306.97
306.8
306.633
306.262
306.185
306.184
306.117
306.337
306.249
306.235
306.162
306.468
306.369
306.323
306.236
307.23
307.147
307.002
306.892
306.792
306.679
306.625
306.514
306.407
306.297
307.298
307.231
307.09
306.976
306.895
306.767
306.702
306.565
306.46
306.318
307.193
307.067
307.285
307.173
307.398
307.356
307.481
307.455
307.078
306.932
306.988
306.833
307.363
307.251
307.415
307.307
307.548
307.523
307.597
307.577
307.159
307.01
307.211
307.065
306.843
306.669
306.554
306.346
306.77
306.587
306.504
306.299
306.909
306.741
306.601
306.396
306.972
306.802
306.666
306.472
306.156
306.117
306.053
306.143
306.122
306.063
306.204
306.158
306.09
306.179
306.155
306.092
306.303
306.243
306.167
306.235
306.202
306.13
307.046
306.931
306.81
306.774
306.672
306.566
306.569
306.481
306.386
306.423
306.347
306.257
306.28
306.235
306.152
307.136
307.006
306.869
306.823
306.689
306.554
306.612
306.492
306.37
306.441
306.348
306.24
306.284
306.227
306.13
307.551
307.592
307.588
307.642
307.449
307.5
307.492
307.555
307.565
307.646
307.576
307.65
307.591
307.662
307.609
307.676
307.669
307.633
307.693
307.65
307.68
307.71
307.685
307.734
307.607
307.661
307.694
307.742
307.728
307.773
307.728
307.775
307.727
307.799
307.714
307.781
307.74
307.813
307.737
307.804
307.752
307.832
307.773
307.845
307.79
307.852
307.83
307.879
307.645
307.681
307.695
307.734
307.538
307.569
307.596
307.629
307.763
307.81
307.72
307.763
307.743
307.78
307.79
307.82
307.649
307.68
307.701
307.725
307.806
307.851
307.849
307.887
307.821
307.882
307.859
307.894
307.785
307.852
307.818
307.86
307.856
307.908
307.895
307.924
307.894
307.937
307.927
307.95
307.72
307.681
307.79
307.75
307.723
307.681
307.796
307.754
307.726
307.689
307.805
307.768
307.607
307.479
307.686
307.75
307.817
307.451
307.576
307.65
307.712
307.784
307.505
307.629
307.718
307.778
307.825
307.616
307.527
307.684
307.597
307.622
307.536
307.695
307.612
307.637
307.556
307.716
307.638
307.413
307.343
307.546
307.475
307.622
307.549
307.681
307.606
307.749
307.675
307.481
307.438
307.608
307.565
307.695
307.644
307.75
307.689
307.791
307.717
307.686
307.667
307.74
307.735
307.57
307.555
307.635
307.637
307.807
307.784
307.76
307.726
307.782
307.788
307.822
307.832
307.685
307.698
307.73
307.747
307.845
307.832
307.881
307.871
307.847
307.806
307.863
307.802
307.804
307.753
307.83
307.761
307.882
307.85
307.892
307.838
307.912
307.883
307.918
307.871
307.406
307.287
307.175
307.449
307.314
307.202
307.423
307.302
307.188
307.469
307.334
307.216
307.449
307.33
307.214
307.502
307.36
307.234
307.25
307.135
307.012
307.38
307.26
307.134
307.452
307.327
307.199
307.503
307.379
307.254
307.538
307.388
307.251
307.362
307.236
307.096
307.485
307.357
307.215
307.553
307.417
307.271
307.583
307.44
307.292
307.573
307.415
307.264
307.827
307.771
307.634
307.386
307.804
307.745
307.603
307.353
307.837
307.779
307.641
307.391
307.822
307.76
307.616
307.365
307.85
307.789
307.657
307.413
307.856
307.788
307.647
307.398
307.852
307.777
307.626
307.371
307.868
307.784
307.626
307.37
307.881
307.809
307.671
307.424
307.877
307.8
307.673
307.45
307.859
307.794
307.669
307.44
307.852
307.783
307.664
307.455
307.9
307.821
307.671
307.415
307.899
307.815
307.68
307.452
307.918
307.832
307.677
307.422
307.918
307.828
307.689
307.462
307.822
307.773
307.647
307.414
307.79
307.748
307.64
307.436
307.825
307.774
307.65
307.418
307.791
307.747
307.64
307.438
307.829
307.775
307.655
307.43
307.798
307.75
307.643
307.442
307.831
307.772
307.658
307.445
307.805
307.751
307.646
307.451
307.828
307.765
307.656
307.46
307.74
307.704
307.607
307.46
307.684
307.652
307.553
307.415
307.746
307.707
307.61
307.463
307.69
307.655
307.555
307.417
307.757
307.714
307.614
307.466
307.702
307.661
307.558
307.419
307.774
307.723
307.62
307.472
307.717
307.669
307.563
307.423
307.796
307.735
307.629
307.478
307.736
307.678
307.568
307.426
307.836
307.758
307.64
307.484
307.782
307.705
307.585
307.438
307.816
307.746
307.634
307.481
307.759
307.692
307.577
307.432
307.855
307.769
307.646
307.487
307.804
307.718
307.593
307.444
307.872
307.78
307.653
307.493
307.824
307.731
307.601
307.451
307.013
306.714
306.461
306.257
306.101
306.994
306.699
306.447
306.243
306.087
307.015
306.715
306.462
306.258
306.101
306.998
306.701
306.449
306.245
306.088
307.02
306.717
306.463
306.259
306.102
307.011
306.713
306.46
306.255
306.098
307.004
306.705
306.452
306.247
306.09
307.009
306.709
306.454
306.249
306.092
307.022
306.719
306.464
306.259
306.103
307.007
306.697
306.442
306.237
306.081
307.019
306.714
306.459
306.254
306.098
307.002
306.692
306.437
306.232
306.076
307.023
306.719
306.464
306.259
306.102
307.005
306.695
306.439
306.234
306.078
307.028
306.722
306.467
306.261
306.104
307.007
306.695
306.438
306.233
306.077
307.011
306.707
306.454
306.25
306.093
306.988
306.681
306.428
306.224
306.068
307.011
306.707
306.453
306.249
306.093
306.989
306.681
306.427
306.224
306.068
307.011
306.705
306.45
306.246
306.09
306.989
306.68
306.426
306.222
306.066
307.004
306.695
306.441
306.236
306.08
306.985
306.675
306.421
306.217
306.061
306.991
306.681
306.427
306.222
306.066
305.856
305.81
305.877
305.831
305.917
305.865
305.967
305.906
306.018
305.947
306.101
306.019
306.059
305.979
306.141
306.063
306.183
306.112
305.374
304.852
304.418
304.084
303.857
305.381
304.856
304.417
304.081
303.851
305.384
304.857
304.421
304.086
303.859
305.39
304.86
304.42
304.082
303.852
305.404
304.868
304.429
304.091
303.864
305.409
304.87
304.427
304.087
303.856
305.43
304.884
304.439
304.099
303.87
305.433
304.885
304.437
304.094
303.862
305.462
304.904
304.452
304.109
303.879
305.46
304.902
304.448
304.102
303.869
305.529
304.953
304.488
304.137
303.903
305.522
304.946
304.48
304.128
303.892
305.495
304.928
304.47
304.122
303.89
305.489
304.922
304.462
304.113
303.879
305.563
304.979
304.508
304.152
303.917
305.558
304.973
304.502
304.145
303.907
305.597
305.005
304.528
304.169
303.931
305.597
305.003
304.525
304.163
303.923
307.679
307.607
307.538
307.621
307.499
307.512
307.516
307.533
307.494
307.517
307.397
307.423
307.344
307.373
307.416
307.441
307.443
307.461
307.447
307.461
307.611
307.623
307.366
307.269
307.242
307.231
307.319
307.396
307.289
307.404
307.194
307.056
307.37
307.337
307.228
307.338
307.293
307.28
307.482
307.478
307.412
307.43
307.461
307.481
307.45
307.415
307.295
307.315
307.365
307.385
307.572
307.592
307.545
307.559
307.521
307.519
307.443
307.358
307.446
307.746
307.814
307.841
307.834
307.793
307.725
307.782
307.805
307.793
307.739
307.436
307.468
307.471
307.442
307.38
307.336
307.365
307.365
307.335
307.273
307.31
307.341
307.342
307.312
307.251
307.298
307.327
307.327
307.297
307.235
307.388
307.419
307.421
307.392
307.331
307.543
307.631
307.676
307.683
307.652
307.445
307.54
307.587
307.595
307.56
307.51
307.577
307.611
307.606
307.558
307.338
307.429
307.473
307.476
307.433
307.196
307.288
307.332
307.335
307.294
307.455
307.503
307.521
307.504
307.449
307.435
307.495
307.524
307.515
307.464
307.323
307.381
307.407
307.397
307.346
307.417
307.459
307.472
307.452
307.395
307.376
307.424
307.441
307.424
307.369
307.357
307.399
307.411
307.389
307.332
307.617
307.692
307.729
307.729
307.693
307.573
307.629
307.654
307.643
307.59
307.492
307.537
307.551
307.531
307.474
307.507
307.548
307.558
307.536
307.477
307.545
307.591
307.607
307.589
307.532
307.56
307.602
307.614
307.592
307.534
307.524
307.56
307.567
307.541
307.48
307.488
307.524
307.531
307.505
307.445
307.367
307.402
307.408
307.382
307.323
307.385
307.418
307.421
307.394
307.333
307.441
307.48
307.489
307.466
307.407
307.459
307.495
307.502
307.477
307.417
307.703
307.773
307.803
307.798
307.759
307.687
307.742
307.764
307.749
307.695
307.654
307.717
307.746
307.739
307.695
307.645
307.693
307.71
307.691
307.635
307.602
307.646
307.659
307.639
307.581
307.611
307.666
307.689
307.676
307.623
307.517
307.554
307.562
307.536
307.477
307.429
307.462
307.466
307.438
307.377
307.523
307.562
307.572
307.548
307.489
307.651
307.607
307.648
307.599
307.748
307.697
307.75
307.705
307.644
307.638
307.597
307.607
307.746
307.743
307.7
307.713
307.548
307.447
307.509
307.412
307.548
307.456
307.501
307.412
307.5
307.541
307.522
307.55
307.47
307.429
307.54
307.492
307.562
307.509
307.639
307.588
307.669
307.619
307.445
307.393
307.476
307.416
307.372
307.309
307.354
307.272
307.323
307.244
307.361
307.263
307.321
307.234
307.378
307.247
307.35
307.233
307.297
307.178
307.226
307.105
307.606
307.58
307.584
307.554
307.733
307.724
307.71
307.701
307.463
307.389
307.483
307.416
307.549
307.523
307.504
307.484
307.676
307.672
307.634
307.637
307.427
307.357
307.378
307.315
307.336
307.192
307.218
307.057
307.351
307.196
307.241
307.071
307.301
307.163
307.186
307.03
307.25
307.113
307.143
306.99
307.35
307.305
307.259
307.189
307.358
307.321
307.246
307.179
307.372
307.352
307.223
307.167
307.612
307.743
307.484
307.345
307.169
307.748
307.623
307.495
307.35
307.14
307.735
307.595
307.432
307.255
307.072
307.231
307.195
306.999
306.93
307.266
307.23
307.013
306.943
307.318
307.288
307.029
306.959
307.744
307.724
307.612
307.588
307.473
307.449
307.306
307.275
307.007
306.932
307.734
307.712
307.579
307.531
307.403
307.343
307.2
307.128
306.926
306.836
307.541
307.458
307.518
307.433
307.717
307.706
307.697
307.689
307.319
307.201
307.347
307.235
307.497
307.4
307.459
307.355
307.672
307.659
307.638
307.621
307.298
307.165
307.256
307.115
307.083
306.932
306.784
306.595
307.124
306.977
306.839
306.662
307.05
306.894
306.736
306.541
307.02
306.852
306.709
306.517
307.179
307.146
306.969
306.961
307.213
307.177
306.977
306.972
307.263
307.211
306.986
306.977
307.681
307.607
307.542
307.473
307.409
307.349
307.242
307.185
306.968
306.962
307.669
307.588
307.464
307.39
307.283
307.227
307.101
307.072
306.912
306.919
307.907
307.909
307.861
307.88
307.836
307.838
307.788
307.808
307.956
307.99
307.913
307.949
307.955
307.987
307.908
307.942
307.915
307.955
307.922
307.952
307.979
307.941
307.838
307.788
307.766
307.717
307.86
307.803
307.878
307.827
307.887
307.835
308.01
308.019
307.969
307.98
308.01
308.022
307.966
307.983
308.008
308.026
307.975
307.999
307.927
307.955
307.88
307.917
307.921
307.922
307.9
307.907
307.84
307.84
307.817
307.821
307.954
307.964
307.974
307.976
307.868
307.884
307.831
307.855
307.785
307.795
307.745
307.763
307.924
307.944
307.889
307.918
307.991
308.014
307.995
308.004
308.009
308.025
308.005
308.011
307.963
307.992
307.978
307.991
307.93
307.965
307.955
307.972
308.028
308.021
308.034
308.023
308.025
308.018
308.034
308.022
308.018
308.012
308.031
308.02
307.929
307.849
307.98
308.013
308.025
307.849
307.925
307.976
308.008
308.017
307.85
307.929
307.981
308.008
308.012
307.993
307.943
307.99
307.937
307.994
307.947
307.992
307.941
307.993
307.952
307.996
307.949
307.848
307.828
307.924
307.899
307.97
307.939
307.997
307.961
307.998
307.955
307.854
307.844
307.931
307.918
307.978
307.956
307.999
307.967
307.995
307.952
307.931
307.931
307.913
307.92
307.851
307.857
307.829
307.845
307.962
307.953
307.977
307.962
307.885
307.898
307.856
307.868
307.799
307.821
307.767
307.787
307.938
307.933
307.912
307.905
307.983
307.956
307.976
307.933
307.995
307.963
307.987
307.942
307.965
307.94
307.96
307.916
307.941
307.914
307.941
307.896
307.882
307.825
307.859
307.792
307.89
307.829
307.865
307.794
307.898
307.829
307.874
307.791
307.785
307.71
307.853
307.776
307.89
307.813
307.907
307.827
307.879
307.782
307.808
307.721
307.876
307.786
307.905
307.81
307.904
307.806
307.869
307.759
307.979
307.874
307.704
307.433
307.944
307.84
307.668
307.397
307.981
307.877
307.707
307.434
307.947
307.844
307.674
307.404
307.983
307.879
307.718
307.453
307.961
307.86
307.696
307.432
307.923
307.825
307.659
307.394
307.893
307.801
307.638
307.378
307.973
307.872
307.714
307.454
307.955
307.853
307.711
307.478
307.978
307.875
307.725
307.478
307.959
307.855
307.715
307.49
307.958
307.86
307.699
307.435
307.946
307.848
307.704
307.471
307.938
307.846
307.687
307.429
307.934
307.839
307.697
307.468
307.991
307.886
307.724
307.466
307.975
307.87
307.724
307.494
307.989
307.884
307.725
307.468
307.972
307.867
307.722
307.494
307.983
307.879
307.725
307.476
307.967
307.862
307.719
307.494
307.972
307.868
307.723
307.488
307.961
307.856
307.716
307.498
307.957
307.852
307.715
307.502
307.938
307.833
307.695
307.526
307.888
307.784
307.643
307.486
307.938
307.833
307.695
307.527
307.888
307.783
307.643
307.485
307.937
307.832
307.694
307.526
307.887
307.782
307.641
307.484
307.935
307.83
307.693
307.526
307.885
307.779
307.639
307.483
307.932
307.826
307.692
307.526
307.882
307.775
307.636
307.48
307.915
307.812
307.678
307.515
307.87
307.765
307.627
307.472
307.925
307.82
307.686
307.521
307.878
307.771
307.633
307.477
307.903
307.802
307.669
307.506
307.857
307.754
307.619
307.465
307.888
307.791
307.661
307.5
307.841
307.743
307.61
307.458
307.041
306.731
306.472
306.264
306.106
307.021
306.715
306.457
306.25
306.092
307.041
306.731
306.472
306.264
306.106
307.021
306.716
306.458
306.25
306.093
307.042
306.731
306.472
306.264
306.107
307.031
306.725
306.467
306.26
306.102
307.018
306.714
306.457
306.25
306.093
307.014
306.712
306.456
306.25
306.093
307.04
306.73
306.471
306.264
306.106
307.022
306.706
306.448
306.241
306.084
307.039
306.726
306.467
306.259
306.102
307.02
306.703
306.444
306.237
306.08
307.035
306.727
306.469
306.262
306.104
307.016
306.701
306.443
306.237
306.08
307.032
306.725
306.468
306.262
306.105
307.01
306.697
306.44
306.234
306.077
307.04
306.725
306.465
306.257
306.099
307.018
306.699
306.439
306.231
306.074
307.039
306.723
306.463
306.256
306.098
307.018
306.698
306.438
306.231
306.073
307.036
306.72
306.46
306.252
306.095
307.015
306.695
306.436
306.228
306.071
307.027
306.708
306.449
306.242
306.084
307.008
306.689
306.43
306.223
306.066
307.011
306.693
306.434
306.227
306.07
306.515
306.462
306.507
306.453
306.49
306.435
306.463
306.409
306.419
306.372
306.307
306.246
306.357
306.305
306.263
306.196
306.223
306.155
305.85
305.187
304.664
304.276
304.022
305.864
305.195
304.665
304.274
304.016
305.843
305.183
304.661
304.273
304.02
305.855
305.188
304.661
304.27
304.013
305.829
305.173
304.654
304.268
304.016
305.842
305.179
304.655
304.265
304.009
305.807
305.158
304.644
304.26
304.009
305.822
305.166
304.646
304.258
304.003
305.777
305.138
304.629
304.249
303.999
305.796
305.149
304.633
304.248
303.995
305.703
305.087
304.591
304.219
303.975
305.716
305.095
304.594
304.218
303.971
305.74
305.114
304.611
304.235
303.988
305.76
305.125
304.617
304.235
303.984
305.667
305.06
304.571
304.203
303.961
305.674
305.064
304.571
304.2
303.956
305.632
305.032
304.549
304.186
303.946
305.635
305.032
304.548
304.182
303.939
307.743
307.675
307.729
307.8
307.906
307.862
307.906
307.856
307.835
307.784
307.836
307.791
306.913
306.927
306.962
307.016
307.09
307.18
306.909
306.922
306.955
307.006
307.074
307.154
306.879
306.829
306.895
306.847
306.934
306.891
306.996
306.962
307.079
307.054
307.176
307.148
307.276
307.369
307.449
307.516
307.568
307.604
307.239
307.323
307.399
307.463
307.513
307.548
306.974
306.998
306.994
306.961
306.9
306.988
307.013
307.009
306.976
306.914
307.023
307.048
307.044
307.011
306.95
307.079
307.104
307.101
307.068
307.007
307.154
307.18
307.177
307.145
307.083
307.245
307.272
307.271
307.239
307.177
306.97
306.994
306.99
306.957
306.896
306.983
307.008
307.003
306.971
306.91
307.016
307.041
307.037
307.005
306.944
307.069
307.094
307.091
307.058
306.997
307.137
307.164
307.161
307.129
307.067
307.219
307.246
307.245
307.213
307.152
306.94
306.964
306.96
306.927
306.866
306.89
306.914
306.909
306.877
306.816
306.956
306.98
306.976
306.943
306.882
306.908
306.932
306.928
306.895
306.834
306.995
307.02
307.016
306.983
306.922
306.952
306.976
306.972
306.94
306.879
307.058
307.083
307.08
307.047
306.986
307.024
307.049
307.046
307.014
306.952
307.142
307.168
307.166
307.134
307.072
307.117
307.143
307.14
307.109
307.047
307.241
307.268
307.267
307.235
307.173
307.213
307.241
307.24
307.208
307.147
307.344
307.373
307.373
307.343
307.281
307.438
307.471
307.473
307.444
307.383
307.522
307.558
307.564
307.537
307.477
307.594
307.635
307.645
307.622
307.563
307.651
307.696
307.71
307.69
307.632
307.692
307.739
307.755
307.736
307.679
307.306
307.335
307.335
307.305
307.243
307.392
307.424
307.426
307.397
307.335
307.471
307.505
307.51
307.483
307.422
307.538
307.576
307.583
307.558
307.498
307.591
307.632
307.642
307.618
307.559
307.628
307.67
307.681
307.658
307.599
306.92
306.948
306.996
307.065
307.154
307.258
306.915
306.942
306.989
307.054
307.135
307.227
306.887
306.837
306.917
306.87
306.97
306.929
307.047
307.016
307.145
307.123
307.259
307.237
307.368
307.469
307.551
307.607
307.631
307.627
307.323
307.411
307.485
307.536
307.563
307.566
306.981
307.005
307.001
306.968
306.907
307.009
307.034
307.029
306.996
306.935
307.058
307.083
307.079
307.046
306.984
307.128
307.153
307.149
307.116
307.054
307.217
307.243
307.24
307.207
307.144
307.323
307.35
307.347
307.314
307.252
306.977
307.001
306.997
306.964
306.903
307.004
307.028
307.024
306.991
306.93
307.051
307.076
307.072
307.039
306.977
307.117
307.142
307.138
307.105
307.043
307.199
307.225
307.221
307.189
307.126
307.292
307.319
307.317
307.284
307.222
306.947
306.971
306.967
306.934
306.873
306.897
306.921
306.917
306.884
306.823
306.978
307.002
306.998
306.965
306.903
306.931
306.955
306.95
306.918
306.857
307.031
307.056
307.052
307.019
306.957
306.99
307.014
307.01
306.978
306.916
307.109
307.134
307.13
307.097
307.035
307.078
307.103
307.099
307.066
307.005
307.209
307.234
307.231
307.198
307.135
307.186
307.212
307.209
307.176
307.114
307.324
307.351
307.348
307.315
307.252
307.302
307.329
307.326
307.294
307.231
307.435
307.463
307.462
307.43
307.367
307.538
307.569
307.569
307.539
307.476
307.623
307.657
307.66
307.631
307.569
307.683
307.721
307.729
307.703
307.642
307.713
307.756
307.768
307.745
307.686
307.714
307.761
307.776
307.756
307.698
307.389
307.418
307.416
307.385
307.322
307.48
307.51
307.511
307.48
307.418
307.556
307.589
307.592
307.563
307.501
307.61
307.647
307.652
307.625
307.564
307.64
307.679
307.688
307.663
307.603
307.645
307.687
307.697
307.674
307.615
307.65
307.654
307.482
307.369
307.365
307.337
307.44
307.719
307.689
307.696
307.612
307.607
307.628
307.549
307.538
307.493
307.723
307.704
307.617
307.607
307.658
307.642
307.577
307.562
307.464
307.461
307.549
307.547
307.687
307.677
307.718
307.678
307.664
307.704
307.586
307.494
307.607
307.784
307.848
307.873
307.864
307.82
307.754
307.81
307.832
307.818
307.763
307.55
307.581
307.581
307.55
307.486
307.435
307.463
307.461
307.429
307.366
307.432
307.461
307.459
307.428
307.365
307.403
307.431
307.429
307.397
307.334
307.508
307.537
307.536
307.505
307.441
307.837
307.895
307.917
307.904
307.86
307.803
307.858
307.877
307.862
307.814
307.784
307.832
307.847
307.828
307.77
307.715
307.764
307.778
307.76
307.705
307.682
307.72
307.726
307.7
307.638
307.71
307.752
307.762
307.739
307.679
307.622
307.656
307.66
307.632
307.57
307.612
307.647
307.653
307.625
307.564
307.564
307.597
307.6
307.572
307.51
307.839
307.896
307.917
307.904
307.858
307.788
307.833
307.846
307.824
307.765
307.692
307.728
307.734
307.706
307.645
307.68
307.715
307.719
307.691
307.629
307.736
307.774
307.782
307.756
307.695
307.717
307.754
307.76
307.733
307.671
307.649
307.682
307.685
307.656
307.594
307.633
307.666
307.668
307.638
307.575
307.534
307.565
307.566
307.535
307.473
307.53
307.56
307.56
307.529
307.466
307.621
307.654
307.657
307.628
307.565
307.618
307.65
307.652
307.622
307.56
307.813
307.873
307.896
307.885
307.84
307.77
307.82
307.838
307.82
307.763
307.819
307.871
307.89
307.875
307.824
307.761
307.804
307.816
307.794
307.734
307.742
307.781
307.789
307.764
307.703
307.789
307.835
307.849
307.828
307.77
307.658
307.691
307.694
307.665
307.602
307.563
307.594
307.594
307.563
307.5
307.681
307.715
307.719
307.691
307.628
307.574
307.635
307.66
307.653
307.615
307.539
307.666
307.661
307.765
307.767
307.656
307.647
307.761
307.755
307.559
307.447
307.558
307.457
307.547
307.553
307.476
307.67
307.664
307.769
307.772
307.658
307.649
307.764
307.756
307.554
307.436
307.553
307.45
307.543
307.551
307.469
307.669
307.663
307.771
307.775
307.656
307.646
307.764
307.756
307.549
307.407
307.548
307.424
307.538
307.546
307.447
307.648
307.642
307.751
307.756
307.634
307.622
307.745
307.735
307.521
307.37
307.521
307.388
307.511
307.52
307.415
307.609
307.603
307.712
307.716
307.595
307.581
307.705
307.695
307.482
307.34
307.482
307.354
307.474
307.48
307.381
307.539
307.534
307.64
307.644
307.527
307.515
307.633
307.624
307.419
307.289
307.421
307.303
307.414
307.42
307.329
307.923
307.923
307.853
307.853
307.921
307.919
307.85
307.847
307.973
308.01
307.97
308.004
307.969
307.962
307.992
307.929
307.928
307.858
307.859
307.924
307.92
307.854
307.849
307.98
308.01
307.976
308.003
307.972
307.962
307.99
307.931
307.929
307.86
307.862
307.923
307.917
307.854
307.848
307.977
307.995
307.972
307.988
307.964
307.954
307.976
307.912
307.909
307.841
307.844
307.902
307.894
307.834
307.827
307.953
307.959
307.946
307.953
307.936
307.924
307.942
307.87
307.867
307.8
307.804
307.858
307.847
307.794
307.786
307.906
307.907
307.899
307.901
307.888
307.875
307.892
307.794
307.791
307.726
307.73
307.782
307.772
307.719
307.711
307.829
307.837
307.823
307.832
307.814
307.802
307.822
307.041
307.06
307.096
307.126
307.172
307.203
307.276
307.302
307.253
307.283
307.171
307.201
307.111
307.138
307.061
307.081
307.198
307.238
307.251
307.306
307.325
307.376
307.374
307.439
306.977
306.87
306.997
306.896
307.028
306.925
307.061
306.963
307.141
307.081
307.197
307.121
306.991
307.055
307.316
307.413
307.37
307.443
307.432
307.515
307.497
307.559
307.207
307.307
307.265
307.341
307.119
307.216
306.746
306.672
306.797
306.719
306.802
306.708
306.863
306.776
306.881
306.754
306.976
306.858
307.051
306.934
307.137
307.018
307.23
307.248
307.314
307.324
307.399
307.421
307.466
307.489
307.167
307.147
307.07
307.068
307.385
307.386
307.45
307.438
307.528
307.546
307.586
307.595
307.247
307.213
307.319
307.267
307.022
306.88
306.973
306.815
306.918
306.774
306.89
306.727
307.108
306.97
307.04
306.885
307.186
307.048
307.095
306.941
306.57
306.408
306.544
306.384
306.622
306.471
306.573
306.42
306.706
306.589
306.62
306.494
307.113
307.311
306.933
306.798
306.652
307.28
307.071
306.857
306.713
306.556
307.336
307.15
306.97
306.8
306.633
306.259
306.183
306.183
306.115
306.337
306.249
306.235
306.162
306.468
306.369
306.323
306.236
307.23
307.147
307.002
306.892
306.792
306.679
306.625
306.514
306.407
306.297
307.298
307.231
307.09
306.976
306.895
306.767
306.702
306.565
306.46
306.318
307.193
307.067
307.285
307.173
307.398
307.356
307.481
307.455
307.078
306.931
306.988
306.833
307.363
307.251
307.415
307.307
307.548
307.523
307.597
307.577
307.159
307.01
307.211
307.065
306.843
306.669
306.553
306.346
306.77
306.587
306.504
306.299
306.909
306.741
306.6
306.396
306.972
306.802
306.665
306.472
306.154
306.115
306.052
306.141
306.121
306.062
306.204
306.158
306.09
306.179
306.155
306.092
306.303
306.243
306.167
306.235
306.202
306.13
307.046
306.931
306.81
306.773
306.672
306.565
306.569
306.481
306.386
306.423
306.347
306.257
306.28
306.235
306.152
307.136
307.006
306.869
306.823
306.689
306.554
306.612
306.491
306.37
306.441
306.348
306.24
306.284
306.227
306.13
307.551
307.592
307.588
307.642
307.449
307.5
307.492
307.555
307.564
307.644
307.573
307.648
307.591
307.662
307.609
307.676
307.669
307.633
307.693
307.65
307.68
307.71
307.685
307.734
307.606
307.661
307.694
307.742
307.728
307.773
307.728
307.775
307.726
307.799
307.712
307.779
307.739
307.813
307.737
307.804
307.752
307.832
307.773
307.845
307.79
307.852
307.83
307.879
307.645
307.681
307.695
307.734
307.538
307.569
307.595
307.628
307.763
307.81
307.72
307.763
307.742
307.78
307.79
307.82
307.649
307.68
307.701
307.724
307.806
307.851
307.849
307.887
307.821
307.882
307.859
307.894
307.785
307.852
307.818
307.86
307.856
307.908
307.895
307.924
307.894
307.937
307.927
307.95
307.72
307.681
307.79
307.75
307.723
307.681
307.796
307.754
307.726
307.689
307.805
307.768
307.606
307.479
307.686
307.75
307.817
307.451
307.576
307.65
307.712
307.784
307.505
307.629
307.718
307.778
307.825
307.615
307.526
307.684
307.597
307.622
307.536
307.695
307.612
307.637
307.556
307.716
307.638
307.413
307.343
307.546
307.475
307.622
307.549
307.681
307.606
307.749
307.675
307.481
307.438
307.608
307.565
307.694
307.644
307.75
307.689
307.791
307.717
307.685
307.667
307.74
307.735
307.57
307.555
307.634
307.637
307.807
307.784
307.76
307.726
307.782
307.788
307.822
307.832
307.685
307.698
307.73
307.747
307.845
307.832
307.881
307.871
307.847
307.806
307.863
307.802
307.804
307.753
307.83
307.761
307.882
307.85
307.892
307.838
307.912
307.883
307.918
307.871
307.405
307.286
307.174
307.449
307.314
307.202
307.423
307.302
307.188
307.469
307.333
307.216
307.449
307.33
307.213
307.502
307.36
307.234
307.25
307.135
307.012
307.38
307.26
307.134
307.452
307.327
307.199
307.503
307.379
307.254
307.538
307.388
307.251
307.362
307.236
307.096
307.485
307.357
307.215
307.553
307.417
307.271
307.583
307.44
307.292
307.573
307.415
307.264
307.826
307.771
307.633
307.385
307.803
307.744
307.602
307.352
307.837
307.779
307.641
307.391
307.822
307.76
307.616
307.365
307.85
307.789
307.657
307.413
307.856
307.788
307.647
307.398
307.852
307.777
307.626
307.371
307.868
307.784
307.626
307.37
307.881
307.809
307.671
307.424
307.877
307.8
307.673
307.45
307.859
307.794
307.669
307.44
307.852
307.783
307.664
307.455
307.9
307.821
307.671
307.415
307.899
307.815
307.68
307.452
307.918
307.832
307.677
307.422
307.918
307.828
307.689
307.462
307.822
307.773
307.647
307.413
307.79
307.748
307.64
307.436
307.825
307.774
307.65
307.418
307.791
307.747
307.64
307.438
307.829
307.775
307.655
307.43
307.798
307.75
307.643
307.442
307.831
307.772
307.658
307.445
307.805
307.751
307.646
307.451
307.828
307.765
307.656
307.461
307.74
307.704
307.608
307.46
307.684
307.653
307.554
307.416
307.746
307.707
307.61
307.463
307.69
307.655
307.555
307.417
307.757
307.713
307.614
307.466
307.702
307.661
307.558
307.419
307.774
307.723
307.62
307.472
307.717
307.669
307.563
307.423
307.795
307.735
307.629
307.478
307.736
307.678
307.568
307.426
307.836
307.758
307.64
307.484
307.782
307.705
307.585
307.438
307.816
307.746
307.634
307.481
307.759
307.692
307.577
307.432
307.855
307.769
307.646
307.487
307.804
307.718
307.593
307.444
307.872
307.78
307.653
307.493
307.823
307.731
307.601
307.451
307.013
306.714
306.461
306.257
306.101
306.994
306.699
306.447
306.243
306.087
307.015
306.716
306.462
306.258
306.101
306.998
306.701
306.449
306.245
306.089
307.02
306.717
306.463
306.259
306.102
307.011
306.713
306.46
306.255
306.098
307.004
306.705
306.452
306.247
306.09
307.009
306.709
306.454
306.249
306.092
307.023
306.719
306.464
306.259
306.103
307.007
306.697
306.442
306.237
306.081
307.019
306.714
306.459
306.254
306.098
307.002
306.692
306.437
306.232
306.076
307.023
306.719
306.464
306.259
306.102
307.005
306.695
306.439
306.234
306.078
307.028
306.722
306.467
306.261
306.104
307.007
306.695
306.438
306.233
306.077
307.011
306.707
306.454
306.25
306.094
306.989
306.681
306.428
306.224
306.069
307.011
306.707
306.453
306.249
306.093
306.989
306.681
306.427
306.223
306.068
307.011
306.705
306.45
306.246
306.09
306.989
306.68
306.426
306.222
306.066
307.004
306.695
306.441
306.236
306.08
306.985
306.675
306.421
306.217
306.061
306.991
306.681
306.427
306.222
306.066
305.855
305.809
305.877
305.831
305.916
305.865
305.967
305.906
306.018
305.947
306.101
306.019
306.059
305.979
306.141
306.063
306.183
306.112
305.373
304.852
304.418
304.084
303.857
305.381
304.856
304.417
304.081
303.851
305.384
304.857
304.421
304.086
303.859
305.39
304.86
304.42
304.082
303.852
305.403
304.868
304.428
304.091
303.864
305.409
304.87
304.427
304.087
303.856
305.43
304.884
304.439
304.099
303.87
305.433
304.885
304.437
304.094
303.862
305.462
304.904
304.452
304.109
303.879
305.46
304.902
304.448
304.102
303.869
305.529
304.953
304.488
304.137
303.903
305.522