/*--------------------------------*- C++ -*----------------------------------*\
  =========                 |
  \\      /  F ield         | OpenFOAM: The Open Source CFD Toolbox
   \\    /   O peration     | Website:  https://openfoam.org
    \\  /    A nd           | Version:  13
     \\/     M anipulation  |
\*---------------------------------------------------------------------------*/
FoamFile
{
    format      ascii;
    class       volScalarField;
    location    "224.831886";
    object      T;
}
// * * * * * * * * * * * * * * * * * * * * * * * * * * * * * * * * * * * * * //

dimensions      [0 0 0 1 0 0 0];

internalField   nonuniform List<scalar> 
5712
(
1143.09
1143
1142.84
1142.69
1142.45
1142.3
1141.9
1141.78
1142.01
1141.87
1142.44
1142.29
1142.75
1142.61
1142.98
1142.87
1142.33
1142.14
1142.08
1141.81
1141.67
1141.43
1141.44
1141.12
1143.44
1144
1143.33
1143.86
1143.2
1143.73
1143.03
1143.54
1142.64
1142.94
1142.37
1142.75
1143.41
1143.09
1141.76
1141.29
1141.5
1141.15
1141.16
1140.76
1140.85
1140.55
1142.32
1141.83
1142.04
1141.67
1142.77
1142.3
1144.64
1145.02
1144.38
1144.77
1144.38
1144.85
1144.06
1144.5
1143.98
1144.63
1143.5
1144.1
1143.13
1143.72
1142.7
1143.31
1142.19
1142.11
1141.78
1141.74
1141.32
1141.21
1140.99
1140.89
1142.54
1142.66
1143.03
1143.05
1141.44
1141.44
1141.13
1141.19
1140.7
1140.61
1140.43
1140.38
1142.15
1142.34
1141.8
1142.08
1143.29
1144.01
1143.57
1144.38
1143.81
1144.55
1143.97
1144.82
1142.86
1143.56
1143.23
1144.03
1142.48
1143.17
1142.97
1143.76
1145.55
1146.39
1145.69
1146.52
1145.3
1146.08
1145.55
1146.35
1144.88
1145.48
1145.32
1145.98
1142.77
1141.74
1143.71
1144.41
1145.18
1141.88
1142.97
1144.09
1144.85
1145.67
1141.62
1142.59
1143.53
1144.42
1145.3
1147.16
1147.54
1147.59
1147.92
1146.77
1147.2
1147.32
1147.68
1146.09
1146.58
1146.87
1147.3
1142.12
1142.51
1143.31
1143.85
1144.41
1144.97
1145.29
1145.84
1146.45
1147
1141.79
1142.11
1142.88
1143.44
1143.91
1144.54
1144.92
1145.61
1146.2
1146.92
1142.38
1143.01
1141.93
1142.49
1141.31
1141.49
1140.91
1141.01
1143.02
1143.75
1143.46
1144.24
1141.55
1142.1
1141.3
1141.83
1140.58
1140.68
1140.35
1140.42
1142.61
1143.37
1142.36
1143.1
1144.25
1145.14
1145.77
1146.86
1144.6
1145.54
1146.01
1147.07
1143.92
1144.79
1145.54
1146.61
1143.61
1144.49
1145.22
1146.23
1147.65
1147.81
1148.11
1147.73
1147.79
1148.06
1147.4
1147.6
1147.92
1147.54
1147.61
1147.91
1146.88
1147.15
1147.51
1147.25
1147.37
1147.71
1142.99
1143.54
1144.13
1144.42
1144.89
1145.41
1145.49
1145.9
1146.36
1146.27
1146.61
1147.04
1147.02
1147.2
1147.59
1142.56
1143.17
1143.83
1144.18
1144.82
1145.48
1145.29
1145.86
1146.44
1146.19
1146.61
1147.12
1147.01
1147.24
1147.7
1140.5
1140.3
1140.32
1140.07
1141.03
1140.78
1140.83
1140.52
1140.39
1139.97
1140.34
1139.95
1140.27
1139.9
1140.18
1139.84
1139.9
1140.07
1139.8
1140
1139.83
1139.69
1139.87
1139.64
1140.28
1140.02
1139.79
1139.57
1139.64
1139.43
1139.61
1139.39
1139.56
1139.19
1139.63
1139.28
1139.51
1139.13
1139.52
1139.17
1139.46
1139.04
1139.36
1138.98
1139.29
1138.96
1139.11
1138.83
1140.03
1139.86
1139.81
1139.61
1140.59
1140.44
1140.32
1140.16
1139.45
1139.21
1139.64
1139.43
1139.58
1139.4
1139.36
1139.21
1140.07
1139.92
1139.83
1139.71
1139.25
1139.02
1139.05
1138.85
1139.14
1138.81
1138.95
1138.75
1139.3
1138.95
1139.14
1138.91
1138.98
1138.69
1138.78
1138.61
1138.81
1138.56
1138.64
1138.5
1139.57
1139.75
1139.23
1139.41
1139.57
1139.75
1139.2
1139.39
1139.56
1139.73
1139.16
1139.33
1140.2
1140.86
1139.79
1139.46
1139.11
1140.99
1140.34
1139.95
1139.63
1139.26
1140.74
1140.1
1139.64
1139.33
1139.07
1140.05
1140.48
1139.72
1140.13
1140.03
1140.43
1139.67
1140.07
1139.97
1140.35
1139.58
1139.95
1141.16
1141.49
1140.47
1140.81
1140.08
1140.42
1139.78
1140.12
1139.43
1139.78
1140.84
1141.03
1140.19
1140.38
1139.74
1139.97
1139.45
1139.74
1139.23
1139.58
1139.82
1139.89
1139.57
1139.56
1140.42
1140.46
1140.11
1140.07
1139.21
1139.3
1139.43
1139.58
1139.37
1139.31
1139.18
1139.1
1139.87
1139.78
1139.66
1139.54
1139.04
1139.07
1138.87
1138.89
1139
1139.18
1138.89
1139.18
1139.2
1139.43
1139.05
1139.37
1138.83
1138.97
1138.76
1139.01
1138.69
1138.81
1138.64
1138.85
1141.05
1141.62
1142.16
1140.84
1141.49
1142.03
1140.97
1141.55
1142.1
1140.75
1141.4
1141.96
1140.86
1141.43
1141.99
1140.6
1141.28
1141.88
1141.93
1142.48
1143.07
1141.26
1141.83
1142.43
1140.88
1141.47
1142.09
1140.61
1141.21
1141.8
1140.43
1141.15
1141.81
1141.38
1141.98
1142.65
1140.75
1141.35
1142.03
1140.39
1141.04
1141.73
1140.23
1140.91
1141.62
1140.27
1141.02
1141.74
1139.03
1139.27
1139.92
1141.11
1139.14
1139.4
1140.07
1141.27
1138.99
1139.24
1139.89
1141.09
1139.05
1139.33
1140.01
1141.21
1138.92
1139.19
1139.81
1140.98
1138.9
1139.2
1139.86
1141.05
1138.92
1139.25
1139.96
1141.18
1138.85
1139.22
1139.96
1141.19
1138.78
1139.1
1139.75
1140.93
1138.8
1139.14
1139.74
1140.8
1138.88
1139.17
1139.75
1140.85
1138.92
1139.22
1139.77
1140.78
1138.7
1139.05
1139.75
1140.97
1138.7
1139.07
1139.7
1140.79
1138.61
1139
1139.72
1140.94
1138.61
1139.01
1139.66
1140.75
1139.05
1139.27
1139.85
1140.97
1139.2
1139.38
1139.88
1140.86
1139.04
1139.26
1139.84
1140.95
1139.2
1139.39
1139.88
1140.85
1139.02
1139.26
1139.82
1140.9
1139.16
1139.37
1139.87
1140.83
1139.01
1139.27
1139.8
1140.82
1139.13
1139.37
1139.86
1140.79
1139.03
1139.3
1139.81
1140.75
1139.44
1139.59
1140.04
1140.74
1139.7
1139.83
1140.29
1140.95
1139.41
1139.57
1140.02
1140.72
1139.67
1139.81
1140.28
1140.94
1139.35
1139.54
1140.01
1140.71
1139.62
1139.79
1140.27
1140.93
1139.28
1139.5
1139.98
1140.68
1139.54
1139.75
1140.25
1140.91
1139.18
1139.45
1139.94
1140.65
1139.46
1139.71
1140.22
1140.9
1138.99
1139.34
1139.89
1140.63
1139.24
1139.59
1140.14
1140.84
1139.08
1139.39
1139.91
1140.64
1139.35
1139.65
1140.18
1140.87
1138.91
1139.29
1139.86
1140.62
1139.14
1139.53
1140.11
1140.81
1138.82
1139.24
1139.83
1140.59
1139.05
1139.47
1140.07
1140.78
1142.93
1144.39
1145.64
1146.66
1147.44
1143.02
1144.47
1145.71
1146.73
1147.51
1142.92
1144.39
1145.64
1146.66
1147.44
1143
1144.46
1145.7
1146.72
1147.51
1142.9
1144.38
1145.63
1146.65
1147.44
1142.94
1144.4
1145.65
1146.67
1147.46
1142.97
1144.44
1145.69
1146.71
1147.5
1142.95
1144.42
1145.68
1146.7
1147.49
1142.88
1144.37
1145.63
1146.65
1147.43
1142.96
1144.48
1145.74
1146.76
1147.54
1142.9
1144.4
1145.65
1146.67
1147.46
1142.98
1144.5
1145.76
1146.78
1147.57
1142.88
1144.37
1145.63
1146.65
1147.44
1142.97
1144.49
1145.75
1146.77
1147.56
1142.86
1144.36
1145.62
1146.64
1147.43
1142.96
1144.49
1145.76
1146.78
1147.57
1142.94
1144.43
1145.68
1146.7
1147.48
1143.05
1144.56
1145.81
1146.83
1147.61
1142.94
1144.43
1145.68
1146.7
1147.48
1143.04
1144.56
1145.81
1146.83
1147.61
1142.94
1144.44
1145.7
1146.71
1147.5
1143.05
1144.56
1145.82
1146.84
1147.62
1142.97
1144.49
1145.75
1146.76
1147.55
1143.06
1144.59
1145.84
1146.86
1147.64
1143.03
1144.56
1145.82
1146.83
1147.62
1149.36
1149.6
1149.25
1149.5
1149.06
1149.33
1148.81
1149.13
1148.56
1148.93
1148.17
1148.6
1148.37
1148.79
1147.98
1148.39
1147.77
1148.15
1152
1154.89
1157.32
1159.21
1160.5
1151.96
1154.87
1157.33
1159.23
1160.54
1151.95
1154.87
1157.3
1159.2
1160.49
1151.92
1154.85
1157.31
1159.22
1160.53
1151.86
1154.81
1157.27
1159.17
1160.47
1151.82
1154.8
1157.28
1159.2
1160.51
1151.73
1154.73
1157.22
1159.13
1160.44
1151.7
1154.73
1157.23
1159.16
1160.48
1151.57
1154.64
1157.15
1159.08
1160.39
1151.57
1154.64
1157.17
1159.12
1160.44
1151.24
1154.39
1156.97
1158.94
1160.26
1151.28
1154.43
1157.01
1158.99
1160.32
1151.41
1154.52
1157.06
1159.01
1160.33
1151.43
1154.54
1157.1
1159.06
1160.39
1151.08
1154.26
1156.87
1158.85
1160.19
1151.1
1154.29
1156.9
1158.9
1160.24
1150.91
1154.13
1156.76
1158.77
1160.11
1150.9
1154.14
1156.78
1158.8
1160.16
1139.91
1140.28
1140.61
1140.17
1140.72
1140.67
1140.65
1140.57
1140.77
1140.67
1141.28
1141.15
1141.54
1141.4
1141.16
1141.04
1141.01
1140.93
1140.98
1140.92
1140.19
1140.09
1141.19
1141.63
1141.77
1141.81
1141.41
1141.24
1141.75
1141.14
1142.19
1142.86
1141.25
1141.45
1141.96
1141.39
1141.62
1141.66
1140.81
1140.76
1141.04
1140.94
1140.81
1140.7
1140.82
1140.98
1141.56
1141.45
1141.24
1141.13
1140.37
1140.22
1140.47
1140.35
1140.52
1140.56
1140.86
1141.24
1140.85
1139.51
1139.16
1139.01
1139.03
1139.22
1139.59
1139.3
1139.17
1139.22
1139.46
1140.85
1140.7
1140.68
1140.82
1141.11
1141.31
1141.16
1141.16
1141.31
1141.6
1141.45
1141.3
1141.29
1141.43
1141.72
1141.49
1141.35
1141.35
1141.49
1141.79
1141.08
1140.93
1140.91
1141.05
1141.34
1140.49
1140.04
1139.8
1139.75
1139.89
1140.96
1140.47
1140.22
1140.17
1140.33
1140.61
1140.28
1140.1
1140.1
1140.33
1141.46
1141
1140.76
1140.74
1140.93
1142.15
1141.67
1141.44
1141.41
1141.6
1140.84
1140.59
1140.5
1140.57
1140.83
1140.96
1140.66
1140.5
1140.53
1140.77
1141.49
1141.2
1141.06
1141.09
1141.33
1141
1140.79
1140.72
1140.81
1141.08
1141.21
1140.97
1140.88
1140.95
1141.21
1141.28
1141.07
1141.01
1141.1
1141.37
1140.13
1139.74
1139.55
1139.53
1139.69
1140.3
1140.01
1139.88
1139.92
1140.16
1140.64
1140.42
1140.35
1140.43
1140.7
1140.56
1140.36
1140.3
1140.4
1140.68
1140.4
1140.17
1140.08
1140.16
1140.42
1140.31
1140.11
1140.04
1140.14
1140.41
1140.46
1140.28
1140.25
1140.36
1140.65
1140.63
1140.45
1140.42
1140.53
1140.82
1141.21
1141.03
1141
1141.12
1141.4
1141.11
1140.95
1140.92
1141.05
1141.34
1140.87
1140.68
1140.63
1140.73
1141.01
1140.77
1140.59
1140.55
1140.67
1140.95
1139.71
1139.35
1139.19
1139.2
1139.37
1139.75
1139.48
1139.36
1139.41
1139.66
1139.93
1139.61
1139.45
1139.47
1139.67
1139.93
1139.69
1139.6
1139.68
1139.94
1140.12
1139.9
1139.83
1139.92
1140.19
1140.11
1139.84
1139.71
1139.76
1140
1140.5
1140.31
1140.27
1140.39
1140.67
1140.9
1140.73
1140.71
1140.84
1141.13
1140.48
1140.29
1140.23
1140.34
1140.62
1140.16
1140.36
1140.18
1140.4
1139.66
1139.9
1139.65
1139.86
1140.2
1140.22
1140.41
1140.37
1139.67
1139.68
1139.89
1139.82
1140.69
1141.2
1140.87
1141.36
1140.69
1141.15
1140.9
1141.36
1140.91
1140.72
1140.8
1140.68
1141.08
1141.28
1140.68
1140.91
1140.58
1140.83
1140.17
1140.41
1140.03
1140.27
1141.17
1141.42
1141.02
1141.31
1141.55
1141.84
1141.67
1142.08
1141.81
1142.2
1141.64
1142.12
1141.82
1142.25
1141.55
1142.21
1141.68
1142.26
1141.93
1142.52
1142.27
1142.88
1140.38
1140.51
1140.49
1140.64
1139.72
1139.77
1139.84
1139.87
1141.11
1141.49
1141.02
1141.36
1140.65
1140.79
1140.87
1140.97
1140
1140.01
1140.2
1140.18
1141.28
1141.65
1141.51
1141.85
1141.76
1142.48
1142.37
1143.2
1141.7
1142.48
1142.26
1143.13
1141.92
1142.62
1142.52
1143.32
1142.17
1142.86
1142.73
1143.52
1141.71
1141.95
1142.16
1142.54
1141.67
1141.87
1142.23
1142.59
1141.6
1141.71
1142.35
1142.65
1140.36
1139.68
1141.02
1141.73
1142.64
1139.65
1140.3
1140.97
1141.72
1142.79
1139.71
1140.44
1141.28
1142.2
1143.14
1142.34
1142.51
1143.54
1143.89
1142.16
1142.33
1143.47
1143.82
1141.89
1142.03
1143.38
1143.73
1139.67
1139.76
1140.36
1140.47
1141.08
1141.19
1141.94
1142.09
1143.49
1143.87
1139.71
1139.81
1140.52
1140.75
1141.43
1141.73
1142.49
1142.85
1143.91
1144.37
1140.7
1141.11
1140.81
1141.23
1139.79
1139.82
1139.88
1139.89
1141.84
1142.44
1141.71
1142.28
1140.91
1141.39
1141.09
1141.6
1139.99
1140.03
1140.16
1140.21
1141.94
1142.61
1142.14
1142.86
1143.08
1143.85
1144.64
1145.63
1142.87
1143.62
1144.36
1145.28
1143.23
1144.04
1144.88
1145.9
1143.38
1144.24
1145.01
1146.01
1142.58
1142.72
1143.65
1143.67
1142.4
1142.56
1143.61
1143.61
1142.14
1142.38
1143.56
1143.57
1139.95
1140.3
1140.68
1141
1141.37
1141.65
1142.24
1142.5
1143.65
1143.64
1140
1140.37
1141.07
1141.41
1142.01
1142.26
1142.95
1143.06
1143.92
1143.84
1138.83
1138.82
1139.04
1138.95
1139.2
1139.19
1139.43
1139.33
1138.57
1138.38
1138.77
1138.57
1138.58
1138.4
1138.79
1138.6
1138.76
1138.57
1138.73
1138.59
1138.44
1138.62
1139.15
1139.39
1139.53
1139.76
1139.02
1139.28
1138.93
1139.17
1138.87
1139.11
1138.27
1138.19
1138.45
1138.37
1138.27
1138.18
1138.47
1138.36
1138.29
1138.16
1138.43
1138.28
1138.66
1138.48
1138.88
1138.66
1138.75
1138.74
1138.85
1138.81
1139.17
1139.16
1139.28
1139.25
1138.56
1138.5
1138.47
1138.45
1139
1138.91
1139.17
1139.04
1139.43
1139.37
1139.62
1139.52
1138.7
1138.59
1138.86
1138.71
1138.36
1138.21
1138.33
1138.25
1138.28
1138.16
1138.28
1138.22
1138.49
1138.31
1138.4
1138.31
1138.64
1138.43
1138.51
1138.39
1138.18
1138.22
1138.12
1138.18
1138.2
1138.24
1138.12
1138.18
1138.24
1138.27
1138.14
1138.19
1138.71
1139.13
1138.44
1138.26
1138.17
1139.13
1138.73
1138.47
1138.29
1138.2
1139.12
1138.71
1138.43
1138.27
1138.22
1138.35
1138.59
1138.34
1138.59
1138.35
1138.57
1138.33
1138.57
1138.36
1138.55
1138.31
1138.53
1139.13
1139.22
1138.73
1138.85
1138.49
1138.63
1138.34
1138.51
1138.29
1138.5
1139.09
1139.13
1138.69
1138.74
1138.44
1138.53
1138.31
1138.46
1138.3
1138.5
1138.68
1138.66
1138.76
1138.69
1139.1
1139.04
1139.2
1139.09
1138.5
1138.52
1138.43
1138.48
1138.89
1138.79
1139.02
1138.93
1139.34
1139.2
1139.48
1139.35
1138.61
1138.61
1138.73
1138.73
1138.37
1138.48
1138.37
1138.57
1138.32
1138.46
1138.33
1138.54
1138.45
1138.55
1138.45
1138.64
1138.56
1138.67
1138.53
1138.74
1138.88
1139.14
1138.96
1139.28
1138.84
1139.13
1138.93
1139.27
1138.81
1139.13
1138.89
1139.28
1139.42
1139.76
1139.06
1139.42
1138.86
1139.22
1138.76
1139.13
1138.86
1139.31
1139.28
1139.68
1138.93
1139.35
1138.76
1139.21
1138.75
1139.21
1138.9
1139.42
1138.34
1138.81
1139.6
1140.9
1138.5
1138.97
1139.77
1141.07
1138.33
1138.8
1139.59
1140.89
1138.49
1138.95
1139.74
1141.04
1138.32
1138.78
1139.54
1140.8
1138.42
1138.87
1139.64
1140.9
1138.6
1139.03
1139.81
1141.08
1138.73
1139.14
1139.91
1141.16
1138.37
1138.82
1139.55
1140.79
1138.45
1138.9
1139.56
1140.67
1138.34
1138.8
1139.5
1140.68
1138.43
1138.89
1139.55
1140.61
1138.43
1138.87
1139.62
1140.88
1138.48
1138.92
1139.59
1140.71
1138.52
1138.93
1139.68
1140.91
1138.54
1138.96
1139.62
1140.72
1138.29
1138.75
1139.5
1140.74
1138.36
1138.83
1139.51
1140.6
1138.3
1138.76
1139.5
1140.73
1138.38
1138.84
1139.52
1140.6
1138.32
1138.79
1139.5
1140.69
1138.4
1138.86
1139.53
1140.6
1138.37
1138.84
1139.51
1140.63
1138.43
1138.89
1139.54
1140.58
1138.44
1138.91
1139.54
1140.56
1138.54
1139
1139.64
1140.44
1138.77
1139.23
1139.88
1140.62
1138.54
1139
1139.64
1140.43
1138.77
1139.23
1139.88
1140.63
1138.54
1139.01
1139.64
1140.44
1138.77
1139.24
1139.89
1140.63
1138.55
1139.02
1139.65
1140.44
1138.78
1139.25
1139.9
1140.64
1138.56
1139.03
1139.65
1140.44
1138.79
1139.27
1139.91
1140.65
1138.63
1139.09
1139.71
1140.49
1138.84
1139.31
1139.95
1140.69
1138.59
1139.06
1139.68
1140.46
1138.8
1139.28
1139.93
1140.66
1138.69
1139.14
1139.75
1140.53
1138.9
1139.36
1139.99
1140.72
1138.75
1139.19
1139.79
1140.56
1138.97
1139.41
1140.03
1140.75
1142.8
1144.31
1145.59
1146.63
1147.42
1142.9
1144.39
1145.67
1146.7
1147.49
1142.8
1144.32
1145.59
1146.63
1147.42
1142.9
1144.39
1145.66
1146.69
1147.48
1142.79
1144.32
1145.59
1146.62
1147.42
1142.85
1144.35
1145.62
1146.65
1147.44
1142.91
1144.4
1145.67
1146.7
1147.48
1142.93
1144.41
1145.67
1146.7
1147.48
1142.8
1144.32
1145.6
1146.63
1147.42
1142.89
1144.44
1145.71
1146.74
1147.53
1142.81
1144.34
1145.62
1146.65
1147.44
1142.9
1144.45
1145.73
1146.76
1147.55
1142.83
1144.34
1145.61
1146.64
1147.43
1142.92
1144.46
1145.74
1146.76
1147.55
1142.84
1144.34
1145.61
1146.64
1147.43
1142.95
1144.48
1145.75
1146.78
1147.56
1142.81
1144.35
1145.63
1146.66
1147.45
1142.91
1144.48
1145.76
1146.79
1147.58
1142.81
1144.35
1145.64
1146.67
1147.46
1142.91
1144.48
1145.76
1146.79
1147.58
1142.83
1144.37
1145.65
1146.69
1147.48
1142.93
1144.49
1145.77
1146.81
1147.6
1142.87
1144.43
1145.71
1146.74
1147.53
1142.96
1144.52
1145.8
1146.83
1147.62
1142.94
1144.5
1145.78
1146.81
1147.6
1146.08
1146.36
1146.12
1146.41
1146.21
1146.5
1146.35
1146.63
1146.58
1146.82
1147.15
1147.47
1146.89
1147.17
1147.37
1147.73
1147.57
1147.93
1149.62
1153.19
1156.05
1158.2
1159.62
1149.54
1153.15
1156.05
1158.21
1159.66
1149.65
1153.21
1156.07
1158.22
1159.63
1149.58
1153.18
1156.06
1158.24
1159.67
1149.72
1153.26
1156.1
1158.24
1159.66
1149.65
1153.23
1156.1
1158.26
1159.69
1149.83
1153.34
1156.16
1158.28
1159.69
1149.75
1153.3
1156.15
1158.3
1159.73
1149.99
1153.45
1156.24
1158.35
1159.75
1149.89
1153.39
1156.21
1158.35
1159.77
1150.37
1153.71
1156.43
1158.5
1159.88
1150.3
1153.67
1156.42
1158.51
1159.9
1150.18
1153.57
1156.33
1158.42
1159.81
1150.08
1153.51
1156.3
1158.42
1159.83
1150.56
1153.85
1156.54
1158.59
1159.95
1150.52
1153.83
1156.54
1158.6
1159.98
1150.73
1153.99
1156.65
1158.68
1160.03
1150.72
1153.99
1156.66
1158.7
1160.07
1139.6
1139.96
1139.7
1139.33
1138.84
1139.04
1138.84
1139.07
1139.21
1139.45
1139.21
1139.41
1143.26
1143.2
1143.04
1142.79
1142.45
1142.04
1143.29
1143.23
1143.08
1142.84
1142.53
1142.16
1143.43
1143.67
1143.36
1143.59
1143.18
1143.39
1142.89
1143.06
1142.51
1142.63
1142.06
1142.2
1141.6
1141.18
1140.82
1140.52
1140.3
1140.14
1141.77
1141.39
1141.05
1140.77
1140.54
1140.39
1142.97
1142.85
1142.87
1143.03
1143.33
1142.9
1142.78
1142.8
1142.96
1143.26
1142.74
1142.62
1142.64
1142.8
1143.1
1142.48
1142.36
1142.38
1142.53
1142.83
1142.14
1142.01
1142.02
1142.18
1142.48
1141.72
1141.59
1141.59
1141.74
1142.04
1142.99
1142.87
1142.89
1143.05
1143.35
1142.93
1142.81
1142.83
1142.99
1143.29
1142.78
1142.66
1142.67
1142.83
1143.13
1142.54
1142.41
1142.43
1142.58
1142.88
1142.22
1142.09
1142.1
1142.26
1142.56
1141.85
1141.71
1141.72
1141.87
1142.17
1143.13
1143.01
1143.03
1143.19
1143.49
1143.37
1143.26
1143.28
1143.44
1143.74
1143.06
1142.94
1142.96
1143.12
1143.42
1143.29
1143.17
1143.19
1143.35
1143.65
1142.88
1142.76
1142.78
1142.93
1143.23
1143.09
1142.97
1142.99
1143.14
1143.44
1142.59
1142.46
1142.48
1142.64
1142.94
1142.75
1142.63
1142.65
1142.8
1143.1
1142.2
1142.07
1142.08
1142.24
1142.54
1142.32
1142.2
1142.21
1142.36
1142.66
1141.74
1141.61
1141.62
1141.77
1142.06
1141.88
1141.75
1141.75
1141.9
1142.2
1141.27
1141.13
1141.13
1141.27
1141.56
1140.84
1140.68
1140.67
1140.8
1141.09
1140.47
1140.29
1140.26
1140.38
1140.66
1140.15
1139.95
1139.89
1139.99
1140.27
1139.9
1139.67
1139.6
1139.68
1139.95
1139.72
1139.48
1139.39
1139.47
1139.73
1141.45
1141.31
1141.3
1141.45
1141.74
1141.06
1140.91
1140.89
1141.03
1141.32
1140.71
1140.54
1140.51
1140.63
1140.92
1140.4
1140.22
1140.17
1140.29
1140.57
1140.17
1139.97
1139.91
1140.01
1140.29
1140
1139.79
1139.73
1139.83
1140.1
1143.23
1143.1
1142.88
1142.56
1142.15
1141.67
1143.26
1143.13
1142.91
1142.61
1142.24
1141.81
1143.39
1143.63
1143.25
1143.48
1143
1143.21
1142.65
1142.8
1142.19
1142.3
1141.66
1141.77
1141.16
1140.7
1140.34
1140.1
1140.01
1140.04
1141.38
1140.97
1140.65
1140.42
1140.31
1140.31
1142.93
1142.81
1142.84
1143
1143.29
1142.8
1142.68
1142.7
1142.86
1143.16
1142.57
1142.46
1142.47
1142.63
1142.93
1142.25
1142.13
1142.15
1142.31
1142.61
1141.84
1141.71
1141.73
1141.89
1142.19
1141.35
1141.22
1141.23
1141.39
1141.69
1142.96
1142.84
1142.86
1143.02
1143.32
1142.83
1142.71
1142.73
1142.89
1143.19
1142.61
1142.49
1142.51
1142.67
1142.97
1142.31
1142.19
1142.2
1142.36
1142.66
1141.93
1141.8
1141.82
1141.98
1142.28
1141.5
1141.37
1141.38
1141.53
1141.83
1143.09
1142.98
1143
1143.16
1143.46
1143.34
1143.22
1143.24
1143.4
1143.7
1142.95
1142.84
1142.86
1143.02
1143.32
1143.18
1143.07
1143.09
1143.25
1143.54
1142.7
1142.58
1142.6
1142.76
1143.06
1142.91
1142.79
1142.81
1142.97
1143.27
1142.34
1142.22
1142.24
1142.4
1142.7
1142.5
1142.38
1142.39
1142.55
1142.85
1141.88
1141.76
1141.77
1141.93
1142.23
1141.99
1141.87
1141.88
1142.04
1142.34
1141.35
1141.22
1141.23
1141.39
1141.69
1141.46
1141.33
1141.34
1141.5
1141.8
1140.84
1140.7
1140.71
1140.86
1141.16
1140.37
1140.22
1140.22
1140.36
1140.66
1139.99
1139.83
1139.8
1139.94
1140.23
1139.73
1139.54
1139.5
1139.61
1139.9
1139.61
1139.39
1139.33
1139.42
1139.7
1139.61
1139.38
1139.29
1139.38
1139.64
1141.06
1140.92
1140.92
1141.07
1141.37
1140.64
1140.5
1140.49
1140.63
1140.93
1140.3
1140.14
1140.12
1140.26
1140.55
1140.06
1139.88
1139.85
1139.97
1140.26
1139.94
1139.74
1139.69
1139.8
1140.08
1139.92
1139.71
1139.65
1139.76
1140.03
1140.01
1139.94
1140.64
1141.16
1141.19
1141.31
1140.84
1139.7
1139.84
1139.75
1140.18
1140.12
1140.05
1140.38
1140.44
1140.64
1139.66
1139.69
1140.06
1140.09
1139.87
1139.93
1140.22
1140.28
1140.75
1140.75
1140.36
1140.36
1139.83
1139.82
1139.65
1139.79
1139.84
1139.68
1140.18
1140.59
1140.09
1139.34
1139
1138.87
1138.89
1139.09
1139.45
1139.17
1139.05
1139.1
1139.35
1140.31
1140.17
1140.16
1140.31
1140.61
1140.84
1140.7
1140.71
1140.86
1141.16
1140.87
1140.73
1140.73
1140.88
1141.18
1140.99
1140.86
1140.86
1141.02
1141.32
1140.51
1140.37
1140.37
1140.52
1140.82
1139.11
1138.8
1138.68
1138.72
1138.92
1139.27
1138.98
1138.87
1138.93
1139.15
1139.32
1139.08
1138.99
1139.07
1139.33
1139.67
1139.42
1139.33
1139.4
1139.66
1139.75
1139.57
1139.53
1139.65
1139.93
1139.65
1139.44
1139.38
1139.48
1139.75
1140.03
1139.86
1139.83
1139.96
1140.25
1140.08
1139.91
1139.87
1140
1140.28
1140.29
1140.13
1140.11
1140.24
1140.53
1139.08
1138.79
1138.67
1138.71
1138.92
1139.28
1139.06
1138.98
1139.07
1139.34
1139.7
1139.52
1139.49
1139.61
1139.9
1139.74
1139.57
1139.54
1139.67
1139.96
1139.5
1139.31
1139.26
1139.38
1139.66
1139.57
1139.39
1139.36
1139.48
1139.76
1139.87
1139.71
1139.69
1139.82
1140.11
1139.94
1139.79
1139.77
1139.91
1140.2
1140.41
1140.26
1140.25
1140.39
1140.69
1140.42
1140.28
1140.27
1140.42
1140.71
1140.02
1139.85
1139.83
1139.97
1140.26
1140.02
1139.86
1139.85
1139.98
1140.28
1139.2
1138.89
1138.76
1138.79
1139
1139.36
1139.11
1139.01
1139.08
1139.34
1139.16
1138.89
1138.78
1138.84
1139.07
1139.39
1139.17
1139.1
1139.2
1139.47
1139.46
1139.27
1139.22
1139.33
1139.62
1139.27
1139.04
1138.96
1139.05
1139.32
1139.83
1139.67
1139.65
1139.78
1140.08
1140.26
1140.11
1140.11
1140.25
1140.55
1139.74
1139.57
1139.54
1139.67
1139.96
1140.24
1139.96
1139.85
1139.89
1140.08
1140.45
1140.09
1140.12
1139.58
1139.57
1140.14
1140.18
1139.6
1139.62
1140.64
1141.21
1140.65
1141.16
1140.7
1140.67
1141.07
1140.08
1140.11
1139.56
1139.55
1140.13
1140.18
1139.58
1139.62
1140.67
1141.28
1140.68
1141.21
1140.72
1140.68
1141.11
1140.09
1140.12
1139.56
1139.54
1140.14
1140.19
1139.58
1139.62
1140.7
1141.43
1140.7
1141.34
1140.75
1140.71
1141.22
1140.19
1140.22
1139.65
1139.63
1140.25
1140.3
1139.68
1139.72
1140.84
1141.62
1140.84
1141.52
1140.88
1140.83
1141.37
1140.37
1140.4
1139.84
1139.82
1140.43
1140.49
1139.86
1139.9
1141.03
1141.75
1141.02
1141.68
1141.06
1141.02
1141.53
1140.7
1140.73
1140.17
1140.16
1140.75
1140.8
1140.2
1140.23
1141.32
1141.99
1141.31
1141.92
1141.34
1141.29
1141.77
1138.76
1138.76
1139.13
1139.13
1138.77
1138.77
1139.13
1139.15
1138.49
1138.29
1138.51
1138.32
1138.51
1138.55
1138.38
1138.73
1138.74
1139.1
1139.1
1138.75
1138.77
1139.12
1139.13
1138.46
1138.29
1138.48
1138.33
1138.5
1138.54
1138.39
1138.72
1138.73
1139.1
1139.09
1138.76
1138.78
1139.12
1139.14
1138.48
1138.37
1138.5
1138.4
1138.53
1138.58
1138.46
1138.82
1138.83
1139.19
1139.17
1138.86
1138.89
1139.21
1139.24
1138.59
1138.54
1138.62
1138.57
1138.66
1138.72
1138.62
1139.01
1139.02
1139.38
1139.36
1139.06
1139.1
1139.4
1139.43
1138.81
1138.78
1138.84
1138.81
1138.89
1138.95
1138.86
1139.37
1139.38
1139.72
1139.71
1139.42
1139.45
1139.75
1139.77
1139.17
1139.11
1139.2
1139.13
1139.24
1139.29
1139.18
1143.11
1143.02
1142.84
1142.69
1142.45
1142.3
1141.91
1141.79
1142.01
1141.87
1142.44
1142.3
1142.75
1142.61
1143
1142.9
1142.33
1142.14
1142.08
1141.81
1141.67
1141.43
1141.44
1141.13
1143.45
1144.01
1143.35
1143.87
1143.2
1143.74
1143.04
1143.54
1142.65
1142.94
1142.37
1142.75
1143.41
1143.09
1141.76
1141.29
1141.5
1141.15
1141.16
1140.76
1140.85
1140.55
1142.32
1141.83
1142.04
1141.67
1142.77
1142.3
1144.65
1145.03
1144.39
1144.78
1144.38
1144.86
1144.06
1144.5
1143.98
1144.63
1143.5
1144.1
1143.13
1143.72
1142.7
1143.31
1142.19
1142.11
1141.78
1141.74
1141.32
1141.21
1141
1140.89
1142.54
1142.66
1143.03
1143.05
1141.44
1141.44
1141.13
1141.19
1140.7
1140.61
1140.43
1140.38
1142.15
1142.34
1141.8
1142.08
1143.29
1144.01
1143.57
1144.38
1143.81
1144.55
1143.98
1144.82
1142.86
1143.56
1143.23
1144.03
1142.48
1143.17
1142.97
1143.76
1145.56
1146.4
1145.7
1146.53
1145.3
1146.08
1145.56
1146.35
1144.88
1145.48
1145.32
1145.98
1142.77
1141.74
1143.71
1144.42
1145.18
1141.88
1142.98
1144.09
1144.85
1145.67
1141.62
1142.59
1143.53
1144.43
1145.3
1147.17
1147.55
1147.59
1147.93
1146.77
1147.2
1147.32
1147.68
1146.09
1146.58
1146.87
1147.3
1142.12
1142.51
1143.31
1143.85
1144.41
1144.97
1145.29
1145.84
1146.45
1147
1141.79
1142.11
1142.88
1143.44
1143.91
1144.54
1144.92
1145.61
1146.2
1146.92
1142.38
1143.01
1141.93
1142.49
1141.31
1141.49
1140.91
1141.01
1143.02
1143.75
1143.46
1144.24
1141.55
1142.11
1141.3
1141.83
1140.58
1140.68
1140.35
1140.42
1142.61
1143.37
1142.36
1143.1
1144.25
1145.14
1145.77
1146.86
1144.6
1145.54
1146.01
1147.07
1143.92
1144.79
1145.54
1146.61
1143.61
1144.49
1145.22
1146.23
1147.66
1147.81
1148.12
1147.73
1147.79
1148.07
1147.4
1147.6
1147.92
1147.54
1147.61
1147.91
1146.88
1147.15
1147.51
1147.25
1147.37
1147.71
1142.99
1143.54
1144.13
1144.42
1144.89
1145.41
1145.49
1145.9
1146.36
1146.27
1146.61
1147.04
1147.02
1147.2
1147.59
1142.56
1143.17
1143.83
1144.18
1144.82
1145.48
1145.29
1145.86
1146.44
1146.19
1146.61
1147.12
1147.01
1147.24
1147.7
1140.5
1140.3
1140.32
1140.07
1141.03
1140.78
1140.83
1140.52
1140.39
1139.98
1140.35
1139.96
1140.27
1139.9
1140.18
1139.84
1139.9
1140.07
1139.8
1140
1139.83
1139.69
1139.87
1139.64
1140.28
1140.02
1139.79
1139.57
1139.64
1139.43
1139.61
1139.39
1139.56
1139.19
1139.63
1139.29
1139.51
1139.13
1139.52
1139.17
1139.46
1139.04
1139.36
1138.98
1139.29
1138.96
1139.11
1138.83
1140.04
1139.86
1139.81
1139.61
1140.59
1140.44
1140.32
1140.16
1139.45
1139.21
1139.64
1139.43
1139.59
1139.4
1139.36
1139.21
1140.07
1139.92
1139.83
1139.71
1139.25
1139.02
1139.05
1138.85
1139.14
1138.81
1138.95
1138.75
1139.3
1138.95
1139.14
1138.91
1138.98
1138.69
1138.78
1138.62
1138.81
1138.56
1138.64
1138.5
1139.57
1139.75
1139.23
1139.41
1139.57
1139.75
1139.2
1139.39
1139.56
1139.73
1139.16
1139.33
1140.2
1140.86
1139.79
1139.46
1139.11
1140.99
1140.34
1139.95
1139.63
1139.26
1140.74
1140.1
1139.64
1139.33
1139.07
1140.05
1140.48
1139.72
1140.13
1140.03
1140.43
1139.67
1140.07
1139.97
1140.35
1139.58
1139.95
1141.17
1141.49
1140.47
1140.81
1140.08
1140.42
1139.78
1140.12
1139.43
1139.78
1140.84
1141.03
1140.19
1140.38
1139.74
1139.97
1139.45
1139.74
1139.23
1139.58
1139.82
1139.89
1139.57
1139.56
1140.42
1140.47
1140.11
1140.07
1139.21
1139.3
1139.43
1139.58
1139.37
1139.31
1139.18
1139.1
1139.87
1139.78
1139.66
1139.54
1139.04
1139.07
1138.87
1138.89
1139
1139.18
1138.89
1139.18
1139.2
1139.43
1139.05
1139.37
1138.83
1138.97
1138.76
1139.01
1138.69
1138.81
1138.64
1138.85
1141.05
1141.63
1142.16
1140.84
1141.49
1142.03
1140.97
1141.55
1142.1
1140.75
1141.4
1141.96
1140.86
1141.43
1141.99
1140.6
1141.28
1141.88
1141.93
1142.48
1143.07
1141.26
1141.83
1142.43
1140.88
1141.47
1142.09
1140.61
1141.21
1141.8
1140.43
1141.15
1141.81
1141.38
1141.98
1142.65
1140.75
1141.35
1142.03
1140.39
1141.04
1141.73
1140.23
1140.91
1141.62
1140.27
1141.02
1141.74
1139.03
1139.28
1139.92
1141.11
1139.14
1139.4
1140.07
1141.27
1138.99
1139.24
1139.89
1141.09
1139.05
1139.33
1140.01
1141.21
1138.92
1139.19
1139.81
1140.98
1138.9
1139.2
1139.86
1141.05
1138.92
1139.25
1139.96
1141.18
1138.85
1139.22
1139.96
1141.19
1138.78
1139.1
1139.75
1140.93
1138.8
1139.14
1139.74
1140.8
1138.88
1139.17
1139.75
1140.85
1138.92
1139.22
1139.77
1140.78
1138.7
1139.05
1139.75
1140.97
1138.7
1139.07
1139.7
1140.79
1138.61
1139
1139.72
1140.94
1138.61
1139.01
1139.66
1140.75
1139.05
1139.27
1139.85
1140.98
1139.2
1139.38
1139.88
1140.86
1139.04
1139.26
1139.84
1140.95
1139.2
1139.39
1139.88
1140.85
1139.02
1139.26
1139.82
1140.9
1139.16
1139.37
1139.87
1140.83
1139.01
1139.27
1139.8
1140.82
1139.13
1139.37
1139.86
1140.79
1139.03
1139.3
1139.81
1140.75
1139.44
1139.59
1140.04
1140.74
1139.7
1139.83
1140.29
1140.94
1139.41
1139.57
1140.02
1140.72
1139.67
1139.82
1140.28
1140.94
1139.35
1139.54
1140.01
1140.71
1139.62
1139.79
1140.27
1140.93
1139.28
1139.5
1139.98
1140.68
1139.54
1139.75
1140.25
1140.91
1139.18
1139.45
1139.94
1140.65
1139.46
1139.71
1140.22
1140.9
1138.99
1139.34
1139.89
1140.63
1139.24
1139.59
1140.14
1140.84
1139.08
1139.39
1139.91
1140.64
1139.35
1139.65
1140.18
1140.87
1138.91
1139.29
1139.86
1140.62
1139.14
1139.53
1140.11
1140.81
1138.82
1139.24
1139.83
1140.59
1139.05
1139.47
1140.07
1140.78
1142.93
1144.39
1145.64
1146.66
1147.44
1143.02
1144.47
1145.71
1146.73
1147.51
1142.92
1144.39
1145.64
1146.66
1147.44
1143
1144.46
1145.7
1146.72
1147.5
1142.9
1144.38
1145.63
1146.65
1147.44
1142.94
1144.4
1145.65
1146.67
1147.46
1142.97
1144.44
1145.69
1146.71
1147.5
1142.95
1144.42
1145.68
1146.7
1147.49
1142.88
1144.37
1145.63
1146.65
1147.43
1142.96
1144.48
1145.74
1146.76
1147.54
1142.9
1144.4
1145.65
1146.67
1147.46
1142.98
1144.5
1145.76
1146.78
1147.57
1142.88
1144.37
1145.63
1146.65
1147.44
1142.97
1144.49
1145.75
1146.77
1147.56
1142.86
1144.36
1145.62
1146.64
1147.43
1142.96
1144.49
1145.76
1146.78
1147.57
1142.94
1144.43
1145.68
1146.69
1147.48
1143.05
1144.56
1145.81
1146.82
1147.61
1142.94
1144.43
1145.68
1146.7
1147.48
1143.04
1144.56
1145.81
1146.83
1147.61
1142.94
1144.44
1145.7
1146.71
1147.5
1143.05
1144.56
1145.82
1146.84
1147.62
1142.97
1144.49
1145.75
1146.76
1147.55
1143.06
1144.59
1145.84
1146.86
1147.64
1143.03
1144.56
1145.82
1146.83
1147.62
1149.37
1149.61
1149.25
1149.5
1149.06
1149.33
1148.81
1149.13
1148.56
1148.93
1148.17
1148.6
1148.37
1148.79
1147.98
1148.39
1147.77
1148.15
1152.01
1154.89
1157.32
1159.21
1160.5
1151.96
1154.87
1157.33
1159.23
1160.54
1151.95
1154.87
1157.3
1159.2
1160.49
1151.92
1154.85
1157.31
1159.22
1160.53
1151.86
1154.81
1157.27
1159.17
1160.47
1151.82
1154.8
1157.28
1159.2
1160.51
1151.73
1154.73
1157.22
1159.13
1160.44
1151.7
1154.73
1157.23
1159.16
1160.48
1151.57
1154.64
1157.15
1159.08
1160.39
1151.57
1154.64
1157.17
1159.12
1160.44
1151.24
1154.39
1156.97
1158.94
1160.26
1151.28
1154.43
1157.01
1158.99
1160.32
1151.41