/*--------------------------------*- C++ -*----------------------------------*\
  =========                 |
  \\      /  F ield         | OpenFOAM: The Open Source CFD Toolbox
   \\    /   O peration     | Website:  https://openfoam.org
    \\  /    A nd           | Version:  12
     \\/     M anipulation  |
\*---------------------------------------------------------------------------*/
FoamFile
{
    format      ascii;
    class       volScalarField;
    location    "535";
    object      T;
}
// * * * * * * * * * * * * * * * * * * * * * * * * * * * * * * * * * * * * * //

dimensions      [];

internalField   nonuniform List<scalar> 
4480
(
1.05634e-05
0.000467888
0.0344103
0.159044
0.308636
0.441375
0.548181
0.631105
0.694775
0.743645
0.781326
0.810578
0.833443
0.851442
0.865688
0.877011
0.886027
0.893203
0.898887
0.903345
0.906789
0.909376
0.911231
0.912451
0.913111
0.913273
0.912987
0.91246
0.911926
0.911383
0.910829
0.910263
0.909677
0.909071
0.908441
0.907787
0.907103
0.906387
0.905632
0.90484
0.904008
0.903126
0.902193
0.901207
0.900163
0.899053
0.897874
0.896627
0.895298
0.893881
0.892379
0.890788
0.889089
0.887285
0.885369
0.88333
0.881171
0.878884
0.876455
0.873886
0.871162
0.868284
0.865242
0.862034
0.858643
0.85508
0.85132
0.847376
0.84322
0.83887
0.834299
0.829513
0.8245
0.819258
0.813777
0.808051
0.802076
0.795843
0.789345
0.782576
0.775529
0.768197
0.760573
0.752697
0.744577
0.736208
0.727593
0.718733
0.709629
0.700288
0.690714
0.680917
0.67091
0.660706
0.650329
0.639797
0.629144
0.618404
0.607626
0.596865
0.586187
0.575672
0.565407
0.555516
0.546114
0.537348
0.529382
0.522392
0.516566
0.512109
0.509234
0.508153
0.509074
0.512209
0.517735
0.525821
0.53658
0.550083
0.566343
0.585369
0.607391
0.633202
0.664179
0.703727
0.765345
0.855054
0.917532
0.964262
0.955162
0.888795
0.82406
0.725935
0.636794
0.563577
0.494822
0.427082
0.358299
0.286361
0.209997
0.12524
4.30384e-06
0.0107135
0.152879
0.377431
0.566269
0.699599
0.788741
0.847697
0.886987
0.913598
0.931981
0.944949
0.954295
0.961163
0.966289
0.970178
0.973157
0.975454
0.977228
0.978596
0.97964
0.980416
0.980973
0.98134
0.981546
0.981607
0.981539
0.981248
0.980652
0.979782
0.978668
0.977341
0.97583
0.974161
0.972356
0.970443
0.968439
0.966365
0.964232
0.962056
0.959851
0.957626
0.955382
0.953133
0.950882
0.948628
0.946377
0.944127
0.941878
0.939628
0.937375
0.935122
0.932858
0.930581
0.928291
0.925979
0.923647
0.921285
0.918889
0.916461
0.913985
0.91147
0.9089
0.906277
0.903597
0.900861
0.898055
0.895178
0.892234
0.88922
0.886126
0.882954
0.879701
0.876368
0.872943
0.869436
0.865839
0.862146
0.858373
0.854503
0.850537
0.846487
0.842337
0.838109
0.833814
0.829444
0.825006
0.820512
0.815958
0.811361
0.806729
0.80207
0.7974
0.792739
0.788108
0.783523
0.779023
0.774627
0.770376
0.766317
0.762495
0.758959
0.755773
0.752995
0.750709
0.748979
0.747901
0.747551
0.748032
0.749433
0.751853
0.755372
0.760083
0.766057
0.773349
0.782002
0.792028
0.80343
0.816191
0.830315
0.845865
0.863006
0.88194
0.902816
0.925443
0.947961
0.96667
0.978991
0.968387
0.930897
0.891641
0.847346
0.79864
0.745727
0.687626
0.623079
0.550489
0.468153
0.374999
0.272691
0.000707357
0.0665141
0.332013
0.583826
0.749078
0.846143
0.90179
0.934054
0.953295
0.965206
0.972888
0.97807
0.981706
0.984354
0.986335
0.987853
0.989031
0.989953
0.990676
0.991241
0.991677
0.992004
0.992241
0.992401
0.992493
0.992524
0.9925
0.992406
0.992209
0.99191
0.991509
0.990997
0.990374
0.989631
0.988773
0.987794
0.9867
0.985493
0.984179
0.982763
0.981254
0.97966
0.977991
0.976253
0.974454
0.972608
0.970716
0.968788
0.966828
0.964845
0.962844
0.960827
0.958796
0.956754
0.954709
0.952652
0.950594
0.94853
0.946459
0.944384
0.942302
0.940215
0.938118
0.936015
0.933902
0.931776
0.92964
0.927491
0.925324
0.923147
0.920945
0.918731
0.916496
0.914243
0.911962
0.909664
0.907346
0.905001
0.902634
0.900251
0.897838
0.895409
0.892952
0.890482
0.887991
0.885491
0.882988
0.880481
0.87797
0.875473
0.872989
0.87053
0.868111
0.865735
0.863423
0.861194
0.859062
0.857049
0.855184
0.853494
0.852005
0.850751
0.849778
0.849113
0.84881
0.848912
0.849459
0.850506
0.852105
0.854294
0.85712
0.86062
0.864831
0.869771
0.875453
0.881868
0.889007
0.896832
0.905302
0.914369
0.923972
0.93403
0.944399
0.954798
0.964767
0.973589
0.980286
0.983602
0.975948
0.951879
0.926628
0.898596
0.866415
0.828649
0.783582
0.729047
0.662318
0.580216
0.479798
0.359998
0.00856225
0.199164
0.529818
0.750913
0.867196
0.924791
0.953606
0.96866
0.97704
0.982086
0.985388
0.987725
0.989485
0.99086
0.991958
0.992841
0.993558
0.994133
0.994594
0.994957
0.99524
0.995454
0.995609
0.995718
0.995783
0.99581
0.995804
0.995761
0.995674
0.995544
0.995367
0.99514
0.994861
0.994521
0.994115
0.993639
0.993089
0.992456
0.991743
0.990945
0.990062
0.989096
0.988046
0.986919
0.985717
0.984447
0.983111
0.981719
0.980273
0.978784
0.977255
0.97569
0.9741
0.972484
0.970851
0.969206
0.96755
0.965885
0.96422
0.962551
0.960887
0.959221
0.957563
0.955912
0.954263
0.952623
0.950993
0.949367
0.947752
0.946141
0.944537
0.942942
0.941352
0.939769
0.93819
0.936614
0.935045
0.933485
0.931926
0.930368
0.928816
0.927272
0.925738
0.924199
0.922669
0.921147
0.919635
0.918142
0.916668
0.915214
0.913787
0.912396
0.91105
0.90975
0.908518
0.907352
0.906279
0.905302
0.904442
0.903718
0.903153
0.902761
0.902571
0.902605
0.902896
0.903458
0.904332
0.905538
0.907103
0.909051
0.911405
0.914179
0.917386
0.921029
0.925098
0.929579
0.934447
0.939663
0.945177
0.950923
0.956821
0.962753
0.968564
0.974031
0.978861
0.982668
0.984938
0.984934
0.979458
0.962851
0.944768
0.924835
0.901832
0.874202
0.839807
0.795592
0.737255
0.658835
0.552791
0.41104
0.0414711
0.387342
0.708062
0.866367
0.933741
0.962351
0.975291
0.981773
0.985476
0.987934
0.989773
0.991262
0.992504
0.993545
0.99441
0.995118
0.995693
0.996152
0.99651
0.996785
0.996993
0.997145
0.997253
0.997324
0.997368
0.997387
0.997387
0.997364
0.997315
0.99724
0.997137
0.997007
0.996848
0.996656
0.99643
0.996165
0.995855
0.995499
0.995089
0.994626
0.994102
0.99352
0.992872
0.992162
0.991387
0.99055
0.989655
0.988701
0.987693
0.986636
0.985534
0.98439
0.983211
0.982001
0.980767
0.979514
0.978245
0.97696
0.975672
0.974378
0.973084
0.971791
0.970507
0.969231
0.96796
0.966706
0.965461
0.964229
0.963013
0.961812
0.960626
0.959452
0.958297
0.957156
0.956031
0.95492
0.953827
0.952746
0.951676
0.950625
0.949585
0.948559
0.94755
0.946551
0.945566
0.944596
0.943642
0.942703
0.941788
0.940897
0.940035
0.939203
0.938413
0.937666
0.936968
0.936328
0.935758
0.935267
0.934863
0.934564
0.934376
0.934316
0.934401
0.934647
0.935066
0.935682
0.936504
0.937549
0.938834
0.940375
0.942171
0.944239
0.946572
0.949172
0.952026
0.955112
0.958407
0.961874
0.965467
0.969122
0.972762
0.976294
0.979591
0.982493
0.984793
0.986238
0.98647
0.984977
0.9806
0.968823
0.954699
0.939214
0.921542
0.90046
0.874012
0.838934
0.789927
0.718213
0.609924
0.444626
0.117178
0.582478
0.839431
0.932984
0.965625
0.978081
0.983646
0.986684
0.988738
0.990387
0.991839
0.99313
0.99425
0.9952
0.995974
0.996593
0.997074
0.997437
0.997705
0.997893
0.99802
0.998101
0.998151
0.998176
0.998186
0.998187
0.998181
0.998169
0.998139
0.998093
0.998031
0.997951
0.997853
0.997735
0.997596
0.997432
0.997244
0.997024
0.996772
0.996486
0.996161
0.995794
0.995382
0.994926
0.994422
0.993869
0.993269
0.992619
0.991926
0.991187
0.990407
0.989589
0.988736
0.987852
0.98694
0.986006
0.985055
0.984088
0.983108
0.982123
0.981139
0.98015
0.979168
0.978189
0.977219
0.976261
0.975312
0.974379
0.973464
0.972559
0.971673
0.970802
0.96995
0.969116
0.968296
0.967496
0.966709
0.965942
0.965192
0.964455
0.963734
0.963032
0.962346
0.961676
0.961014
0.960368
0.959741
0.95913
0.958537
0.957965
0.95742
0.956901
0.956414
0.955959
0.955546
0.955179
0.954865
0.954612
0.954422
0.954305
0.954275
0.954333
0.954497
0.954774
0.955172
0.955706
0.956379
0.95721
0.9582
0.959354
0.960685
0.962184
0.963852
0.965684
0.967669
0.969782
0.972006
0.974304
0.976638
0.978953
0.981187
0.983259
0.98507
0.986496
0.987384
0.987535
0.986681
0.984454
0.980332
0.972026
0.960388
0.947559
0.933034
0.915968
0.894889
0.866886
0.826602
0.76342
0.656912
0.469217
0.235661
0.747057
0.918959
0.964809
0.978736
0.984145
0.986923
0.988789
0.990347
0.991804
0.993198
0.99447
0.995558
0.996443
0.997137
0.997663
0.99804
0.998295
0.99845
0.998531
0.998555
0.998544
0.998511
0.998473
0.998436
0.998407
0.998387
0.998379
0.998364
0.998343
0.998315
0.998278
0.99823
0.99817
0.998097
0.998006
0.997897
0.997768
0.997616
0.997441
0.997237
0.997003
0.99674
0.996443
0.996112
0.995744
0.995338
0.994894
0.994416
0.9939
0.993349
0.992767
0.992153
0.99151
0.990843
0.990155
0.989446
0.988724
0.987991
0.987249
0.986502
0.985752
0.985005
0.984259
0.983523
0.982794
0.982073
0.981365
0.980668
0.979988
0.97932
0.97867
0.978031
0.977413
0.976809
0.97622
0.975645
0.975086
0.974545
0.974022
0.973507
0.973012
0.972535
0.972064
0.971608
0.971166
0.970737
0.970323
0.969926
0.969547
0.969185
0.968847
0.968536
0.968247
0.967994
0.96777
0.96759
0.967452
0.96736
0.967325
0.967348
0.96744
0.967605
0.967849
0.96818
0.968604
0.969127
0.969755
0.970489
0.97134
0.972298
0.973369
0.974547
0.975826
0.97719
0.978623
0.980104
0.981609
0.983098
0.984527
0.985844
0.986977
0.987847
0.988356
0.988371
0.987736
0.986246
0.983621
0.979512
0.973245
0.963643
0.95258
0.94004
0.92542
0.907739
0.884638
0.851434
0.797051
0.695732
0.48875
0.381568
0.862815
0.958049
0.977586
0.983761
0.986644
0.988474
0.989965
0.991392
0.992849
0.994289
0.995572
0.996621
0.99743
0.998024
0.998435
0.998691
0.998815
0.998836
0.998779
0.998671
0.998537
0.998401
0.998275
0.998173
0.9981
0.99806
0.998049
0.998049
0.998054
0.998063
0.998072
0.998079
0.99808
0.998072
0.998053
0.998019
0.997971
0.997905
0.997817
0.99771
0.997578
0.997421
0.997237
0.997024
0.996786
0.996518
0.996219
0.99589
0.995533
0.995147
0.994732
0.994292
0.993829
0.993341
0.992835
0.992312
0.991775
0.991226
0.990669
0.990108
0.98954
0.988975
0.98841
0.987847
0.987292
0.986745
0.986208
0.985678
0.98516
0.984655
0.984166
0.983684
0.983221
0.982767
0.982328
0.981904
0.981492
0.981096
0.980712
0.980338
0.979983
0.979637
0.979305
0.97898
0.978668
0.978366
0.978075
0.977798
0.977539
0.97729
0.97706
0.976852
0.97666
0.976491
0.976351
0.976238
0.976159
0.976113
0.976109
0.976145
0.976235
0.976369
0.976565
0.976821
0.977139
0.977529
0.977986
0.97852
0.979125
0.979807
0.980556
0.98137
0.982244
0.983164
0.984113
0.985075
0.986022
0.986921
0.987741
0.988424
0.988921
0.989156
0.989048
0.988486
0.987341
0.985446
0.982595
0.978539
0.973011
0.965357
0.955568
0.944397
0.931355
0.915804
0.895864
0.8678
0.821236
0.727215
0.505239
0.53832
0.9268
0.973291
0.982382
0.985943
0.987939
0.989415
0.990766
0.992187
0.993713
0.995226
0.996515
0.997498
0.998207
0.998684
0.998967
0.99908
0.999045
0.998895
0.998662
0.998382
0.998091
0.997814
0.997574
0.997385
0.997257
0.997188
0.997175
0.997188
0.997225
0.99728
0.997346
0.997417
0.997492
0.997565
0.997628
0.997681
0.997718
0.997738
0.997742
0.997722
0.997684
0.997621
0.997534
0.997422
0.997285
0.99712
0.996932
0.996719
0.99648
0.996216
0.995928
0.995619
0.995288
0.994936
0.994569
0.994184
0.993788
0.993379
0.992962
0.992541
0.992115
0.991685
0.991257
0.990831
0.990408
0.989993
0.989582
0.989179
0.988787
0.988404
0.98803
0.987667
0.987312
0.986971
0.986641
0.986322
0.986015
0.985718
0.985433
0.985156
0.984894
0.984641
0.984398
0.98416
0.983932
0.983716
0.983507
0.98331
0.98312
0.982946
0.98278
0.982633
0.982498
0.982383
0.982286
0.982211
0.982155
0.982131
0.982131
0.982166
0.982231
0.982335
0.982477
0.982662
0.982891
0.983169
0.983492
0.983864
0.984281
0.98475
0.985255
0.9858
0.986373
0.986965
0.987558
0.98814
0.988683
0.98916
0.989535
0.989767
0.989809
0.989592
0.989044
0.988077
0.986579
0.984416
0.981424
0.977425
0.972223
0.965638
0.957203
0.947046
0.935102
0.920961
0.903023
0.878411
0.838037
0.751981
0.51982
0.685932
0.951927
0.978342
0.98455
0.987165
0.988764
0.990064
0.991371
0.992833
0.994458
0.996057
0.997321
0.998211
0.9988
0.999153
0.999292
0.999237
0.999004
0.998635
0.998174
0.99767
0.99717
0.996713
0.996327
0.996031
0.99583
0.995728
0.99571
0.995744
0.995821
0.995934
0.996073
0.99623
0.996396
0.996565
0.99673
0.996885
0.997026
0.997149
0.997252
0.997334
0.997392
0.997423
0.99743
0.997413
0.997372
0.997304
0.99721
0.997092
0.996953
0.996786
0.996598
0.996391
0.996162
0.995918
0.995659
0.995381
0.995094
0.994795
0.994485
0.994172
0.993853
0.993531
0.993208
0.992886
0.992565
0.992249
0.991938
0.991631
0.991332
0.991036
0.990752
0.990474
0.990208
0.989947
0.989695
0.989454
0.989219
0.988996
0.988778
0.988571
0.988374
0.988182
0.988002
0.987824
0.987656
0.987495
0.987339
0.987189
0.987052
0.98692
0.986798
0.986686
0.986589
0.986502
0.98643
0.98637
0.986329
0.986308
0.986303
0.986324
0.986365
0.986432
0.98653
0.986653
0.986807
0.986991
0.987203
0.987448
0.987721
0.988019
0.988339
0.988676
0.989022
0.989364
0.98969
0.989982
0.990219
0.990377
0.99042
0.990315
0.990011
0.989457
0.988584
0.98732
0.985564
0.983213
0.98013
0.97618
0.971207
0.965057
0.957583
0.948507
0.937383
0.924236
0.907608
0.885231
0.849333
0.770705
0.533181
0.785596
0.965186
0.981569
0.985867
0.987959
0.989336
0.990538
0.99184
0.993368
0.995115
0.99679
0.998002
0.998773
0.999237
0.999458
0.999439
0.999176
0.998694
0.99804
0.997282
0.996488
0.995721
0.995034
0.994467
0.994035
0.993753
0.993614
0.993593
0.993656
0.993788
0.993979
0.994214
0.994479
0.994763
0.995056
0.995347
0.995627
0.995893
0.996141
0.996362
0.996559
0.996729
0.996868
0.996978
0.997059
0.997112
0.997138
0.997136
0.997107
0.997055
0.996978
0.996878
0.99676
0.99662
0.996461
0.996286
0.996098
0.995898
0.995684
0.995463
0.995235
0.995
0.994762
0.994522
0.99428
0.994039
0.993801
0.993562
0.993331
0.993101
0.992879
0.992662
0.992449
0.992244
0.992043
0.991853
0.991666
0.991488
0.991316
0.991148
0.990988
0.990838
0.99069
0.990552
0.990419
0.990289
0.990162
0.990042
0.989931
0.989821
0.989722
0.989626
0.989538
0.989459
0.989386
0.989327
0.989277
0.989237
0.989209
0.989198
0.9892
0.989218
0.98925
0.989305
0.989372
0.989462
0.989568
0.989692
0.989833
0.989988
0.990155
0.990328
0.990499
0.990664
0.990812
0.990925
0.990993
0.990989
0.990894
0.99068
0.990309
0.989741
0.988924
0.987802
0.986309
0.984361
0.981869
0.978724
0.97481
0.969999
0.964154
0.957124
0.948711
0.938616
0.92621
0.910502
0.889574
0.856683
0.784174
0.545757
0.861097
0.972566
0.983676
0.986913
0.988547
0.989739
0.990883
0.992201
0.993813
0.995689
0.997441
0.998565
0.9992
0.999543
0.999632
0.999426
0.998902
0.998092
0.997068
0.995924
0.99476
0.993659
0.992691
0.991902
0.991315
0.99094
0.990768
0.990752
0.990857
0.991068
0.991362
0.991723
0.992129
0.992563
0.99301
0.99346
0.993898
0.994319
0.994713
0.995078
0.995408
0.995705
0.995969
0.996193
0.996385
0.996541
0.996664
0.996756
0.996817
0.996851
0.996858
0.996841
0.996801
0.996739
0.996658
0.99656
0.996446
0.996318
0.99618
0.996029
0.995872
0.995707
0.995536
0.995361
0.995186
0.995008
0.99483
0.994652
0.994477
0.994304
0.994135
0.993969
0.993807
0.993649
0.993496
0.993348
0.993207
0.993067
0.992932
0.992803
0.99268
0.992562
0.992446
0.992338
0.992231
0.992131
0.992029
0.991934
0.991844
0.991755
0.991671
0.991593
0.991519
0.991448
0.991386
0.99133
0.99128
0.991238
0.991204
0.991177
0.991159
0.991153
0.991157
0.991169
0.991192
0.991224
0.991263
0.991312
0.991367
0.991425
0.99148
0.991532
0.991571
0.991589
0.991573
0.991517
0.9914
0.991208
0.990911
0.990487
0.989903
0.98912
0.988092
0.986772
0.9851
0.983001
0.980401
0.977209
0.97332
0.968627
0.963001
0.956289
0.948288
0.93869
0.926985
0.912206
0.892254
0.86127
0.793224
0.55786
0.908386
0.977107
0.985121
0.987663
0.989028
0.990048
0.991129
0.992472
0.994171
0.996184
0.998009
0.999015
0.99951
0.999745
0.999696
0.99926
0.998395
0.997155
0.995653
0.994022
0.992397
0.990888
0.989583
0.988535
0.987773
0.987304
0.98711
0.98711
0.987282
0.9876
0.988036
0.988561
0.989148
0.989774
0.990417
0.99106
0.991691
0.992296
0.992867
0.9934
0.993891
0.994336
0.994737
0.995092
0.995405
0.995673
0.995905
0.996097
0.996251
0.996374
0.996466
0.996531
0.996566
0.996579
0.99657
0.996542
0.996496
0.996433
0.996359
0.99627
0.996173
0.996066
0.995953
0.995836
0.995711
0.995587
0.995458
0.995329
0.9952
0.995072
0.994945
0.994821
0.994699
0.994577
0.994461
0.994346
0.994234
0.994126
0.994021
0.993921
0.993822
0.993725
0.993635
0.993546
0.993459
0.993375
0.993294
0.993214
0.993137
0.99306
0.992988
0.992919
0.992851
0.992785
0.992725
0.992668
0.992613
0.992565
0.992519
0.992475
0.99244
0.992409
0.992379
0.992358
0.992338
0.992321
0.992302
0.992287
0.992266
0.992241
0.992205
0.992153
0.992077
0.991974
0.991827
0.991626
0.991355
0.991
0.990537
0.989939
0.989176
0.988219
0.987021
0.985539
0.983722
0.981502
0.978816
0.975582
0.971712
0.967104
0.961638
0.955162
0.947468
0.93825
0.926998
0.912766
0.893539
0.86371
0.798605
0.569699
0.929461
0.981414
0.986149
0.988201
0.989364
0.990308
0.991309
0.99266
0.994448
0.996603
0.998503
0.999364
0.999721
0.99987
0.999668
0.998934
0.997623
0.995827
0.99372
0.991487
0.989303
0.98731
0.985615
0.984281
0.983335
0.982778
0.982584
0.982622
0.982893
0.983356
0.983976
0.984711
0.985526
0.986389
0.987271
0.988151
0.989008
0.98983
0.990611
0.991338
0.992011
0.992627
0.993186
0.993688
0.994136
0.994531
0.994877
0.995176
0.995432
0.995649
0.995828
0.995974
0.996088
0.996174
0.996235
0.996271
0.99629
0.996288
0.996272
0.99624
0.996195
0.996141
0.996077
0.996008
0.99593
0.995849
0.995763
0.995675
0.995585
0.995494
0.995402
0.995309
0.995216
0.995127
0.995038
0.994947
0.994863
0.994776
0.994694
0.99461
0.994532
0.994452
0.994377
0.994302
0.994232
0.994159
0.994088
0.994019
0.993949
0.993881
0.993812
0.993745
0.99368
0.993616
0.993552
0.993489
0.993427
0.993367
0.99331
0.993252
0.993194
0.993139
0.993081
0.993024
0.992964
0.992902
0.992834
0.992758
0.992673
0.992574
0.992457
0.992314
0.992142
0.991931
0.991669
0.991346
0.990949
0.990455
0.989848
0.989103
0.988192
0.987085
0.985743
0.98413
0.982191
0.97987
0.977115
0.973847
0.969989
0.965443
0.960098
0.953797
0.946337
0.937411
0.926513
0.912722
0.894069
0.865135
0.80212
0.578268
0.942603
0.982982
0.986894
0.988577
0.98959
0.990468
0.991466
0.992769
0.994644
0.996943
0.998921
0.999618
0.999856
0.99994
0.999556
0.99843
0.996537
0.994039
0.991184
0.988225
0.985383
0.982834
0.980701
0.979056
0.977924
0.977299
0.977137
0.977251
0.977664
0.978327
0.979187
0.980188
0.981282
0.982431
0.983599
0.984756
0.98588
0.986957
0.987973
0.98892
0.989799
0.990604
0.991338
0.992001
0.992596
0.993127
0.9936
0.994012
0.994375
0.99469
0.99496
0.99519
0.995384
0.995544
0.995674
0.995777
0.995855
0.995913
0.995951
0.995972
0.995978
0.995971
0.995952
0.995924
0.995888
0.995844
0.995795
0.995741
0.995684
0.995621
0.995557
0.995494
0.995427
0.99536
0.995293
0.995225
0.995156
0.995089
0.99502
0.994953
0.994886
0.994822
0.994757
0.994693
0.994628
0.994564
0.994498
0.994435
0.994367
0.994304
0.994236
0.994168
0.9941
0.994034
0.993964
0.993895
0.993823
0.99375
0.993679
0.993601
0.993524
0.993444
0.993357
0.993267
0.99317
0.993066
0.992951
0.992822
0.992677
0.992512
0.992321
0.992102
0.991843
0.991537
0.991173
0.990743
0.990231
0.989618
0.988888
0.988016
0.986978
0.985744
0.984284
0.982555
0.980513
0.978114
0.975299
0.972001
0.96815
0.963651
0.958395
0.95223
0.944954
0.93626
0.925646
0.912207
0.894016
0.865785
0.804337
0.584271
0.951675
0.98417
0.987488
0.988818
0.989699
0.990535
0.991545
0.992861
0.994758
0.997201
0.999266
0.999793
0.999933
0.999976
0.999359
0.997717
0.99508
0.991715
0.987963
0.984153
0.980556
0.977381
0.97477
0.972802
0.971501
0.970842
0.970678
0.970919
0.971546
0.972483
0.973658
0.974999
0.976444
0.97794
0.979444
0.980924
0.982353
0.983714
0.984995
0.986187
0.98729
0.988301
0.989223
0.990058
0.990811
0.991486
0.99209
0.992626
0.993099
0.993515
0.993881
0.994198
0.994471
0.994705
0.994905
0.995072
0.995211
0.995325
0.995416
0.995487
0.995539
0.995576
0.9956
0.99561
0.99561
0.995602
0.995584
0.99556
0.995531
0.995497
0.995458
0.995414
0.995369
0.995321
0.995271
0.99522
0.995167
0.995111
0.995056
0.995001
0.994942
0.994884
0.994826
0.994769
0.99471
0.994648
0.994587
0.994522
0.994458
0.994391
0.994322
0.994253
0.994178
0.994105
0.994028
0.993949
0.993864
0.993778
0.993688
0.993593
0.993495
0.993387
0.993274
0.993153
0.993018
0.992873
0.992713
0.992535
0.992336
0.992111
0.991854
0.991562
0.991225
0.990833
0.990384
0.989858
0.989244
0.988526
0.987687
0.986703
0.985556
0.984214
0.982649
0.980826
0.9787
0.976231
0.973367
0.970046
0.966196
0.961736
0.956548
0.95049
0.943362
0.934855
0.924474
0.911326
0.893511
0.865844
0.805584
0.588314
0.958217
0.985024
0.987829
0.988946
0.989714
0.9905
0.99153
0.992927
0.994806
0.997376
0.999546
0.999903
0.999974
0.999992
0.999068
0.99676
0.993194
0.988783
0.983981
0.979195
0.97475
0.970886
0.967767
0.965478
0.964038
0.963399
0.96327
0.96371
0.964628
0.965921
0.96749
0.969244
0.971103
0.973004
0.974895
0.976737
0.978505
0.980175
0.98174
0.983196
0.984536
0.985763
0.986882
0.987896
0.988812
0.989636
0.990375
0.991035
0.991622
0.992142
0.9926
0.993005
0.99336
0.993669
0.993938
0.994172
0.994368
0.994537
0.994678
0.994796
0.994895
0.994972
0.995034
0.995082
0.995116
0.995138
0.99515
0.995152
0.995149
0.995136
0.995119
0.995094
0.995067
0.995033
0.994999
0.994959
0.994916
0.994872
0.994826
0.994777
0.994725
0.994674
0.994619
0.994563
0.994504
0.994445
0.994382
0.994318
0.994251
0.99418
0.994107
0.994029
0.99395
0.993866
0.99378
0.993687
0.99359
0.993489
0.993381
0.993267
0.993144
0.993012
0.99287
0.992716
0.992549
0.992363
0.992161
0.991935
0.991685
0.991404
0.991086
0.990728
0.990319
0.989854
0.989321
0.988709
0.988006
0.987194
0.986261
0.985183
0.98394
0.982505
0.980851
0.978945
0.976745
0.974219
0.971315
0.967971
0.964124
0.95969
0.954561
0.948592
0.941584
0.933235
0.923053
0.910148
0.892658
0.865451
0.806078
0.59084
0.963051
0.985624
0.988004
0.988963
0.989621
0.990364
0.991413
0.992895
0.99485
0.997462
0.999759
0.999964
0.999993
0.999998
0.998671
0.995515
0.990821
0.98518
0.979178
0.973302
0.967922
0.963312
0.959659
0.957061
0.955528
0.954987
0.95502
0.955753
0.957061
0.958802
0.96085
0.963091
0.965425
0.967777
0.970089
0.972323
0.974446
0.976444
0.978303
0.980024
0.981606
0.983052
0.984369
0.985562
0.986641
0.987614
0.988487
0.989269
0.989967
0.990592
0.991144
0.991635
0.992068
0.992451
0.992786
0.993079
0.993337
0.993557
0.99375
0.993912
0.994054
0.994169
0.994267
0.994348
0.994414
0.994464
0.994503
0.994529
0.994546
0.994554
0.994555
0.994546
0.994534
0.994512
0.994488
0.994459
0.994426
0.994388
0.994346
0.994301
0.994256
0.994203
0.994149
0.994095
0.994035
0.993975
0.993908
0.993841
0.993768
0.993691
0.99361
0.993525
0.993434
0.993342
0.993242
0.993136
0.993025
0.992906
0.992779
0.992642
0.992496
0.99234
0.992168
0.991984
0.991783
0.991561
0.991316
0.991048
0.990747
0.990412
0.99004
0.98962
0.989146
0.988609
0.988003
0.987314
0.98653
0.98564
0.984621
0.983458
0.98213
0.980614
0.978885
0.976905
0.974649
0.972074
0.969133
0.965773
0.96193
0.957522
0.952441
0.946547
0.939643
0.931428
0.921417
0.908734
0.891519
0.864695
0.805992
0.592192
0.966673
0.986034
0.988056
0.988865
0.989427
0.990116
0.991185
0.99276
0.99487
0.997479
0.999907
0.999991
0.999998
0.999999
0.998154
0.993944
0.987907
0.980857
0.973518
0.966448
0.960054
0.954639
0.950426
0.94754
0.945992
0.945566
0.945889
0.947072
0.948928
0.951265
0.953912
0.956728
0.959601
0.962446
0.965206
0.967841
0.970324
0.972644
0.974793
0.976773
0.978587
0.980242
0.981747
0.983111
0.984343
0.985458
0.986458
0.987357
0.98816
0.98888
0.989524
0.990099
0.990606
0.991061
0.99146
0.991813
0.992124
0.992398
0.992634
0.992841
0.993019
0.993173
0.993304
0.993416
0.993508
0.993585
0.993644
0.993692
0.993729
0.993754
0.993768
0.993775
0.993774
0.993765
0.993748
0.993727
0.993699
0.993664
0.993625
0.993583
0.993538
0.993486
0.993431
0.993371
0.993309
0.993245
0.993173
0.993098
0.993018
0.992934
0.992845
0.992749
0.992649
0.992541
0.992427
0.992307
0.992178
0.99204
0.991893
0.991735
0.991565
0.991382
0.991184
0.990969
0.990731
0.990472
0.99019
0.989877
0.989532
0.989146
0.98872
0.988243
0.987709
0.98711
0.986438
0.985677
0.984822
0.983857
0.982763
0.981527
0.980127
0.978541
0.976744
0.974709
0.972402
0.969784
0.966819
0.963447
0.959611
0.955221
0.950188
0.944364
0.937553
0.929458
0.919603
0.907115
0.890152
0.863656
0.805458
0.592623
0.969403
0.986277
0.987989
0.988633
0.989127
0.989757
0.990836
0.99251
0.994785
0.997493
0.999987
1
1
1
0.997497
0.992007
0.98441
0.975785
0.966991
0.95864
0.951155
0.944868
0.94006
0.936921
0.935466
0.934974
0.935811
0.937703
0.940358
0.943499
0.946905
0.950402
0.953874
0.957241
0.960453
0.963481
0.966304
0.968925
0.971336
0.97355
0.975573
0.977417
0.979089
0.980605
0.981973
0.983212
0.984329
0.985332
0.986233
0.987042
0.987766
0.988414
0.988993
0.989509
0.989968
0.990375
0.990735
0.991054
0.991335
0.991581
0.991796
0.991982
0.992143
0.992282
0.992399
0.992497
0.992578
0.992645
0.992697
0.992735
0.992764
0.99278
0.992788
0.992787
0.992775
0.992758
0.992734
0.992702
0.992663
0.992622
0.992573
0.992518
0.992459
0.992398
0.992329
0.992257
0.992179
0.992095
0.992005
0.991911
0.991808
0.991701
0.991589
0.991466
0.991337
0.991199
0.991052
0.990894
0.990727
0.990547
0.990352
0.990142
0.989915
0.989667
0.989396
0.989103
0.988782
0.988429
0.988038
0.987609
0.987131
0.986602
0.986013
0.985355
0.984621
0.9838
0.982882
0.98185
0.980689
0.979391
0.977927
0.976281
0.974429
0.972346
0.969998
0.967349
0.964365
0.960983
0.957153
0.952793
0.947802
0.942038
0.935316
0.92734
0.91763
0.905327
0.888598
0.862385
0.80457
0.59232
0.971433
0.986394
0.987829
0.988316
0.988713
0.989269
0.990354
0.992131
0.994594
0.997507
1
0.999999
0.999998
0.999999
0.996683
0.989671
0.9803
0.96996
0.959626
0.949933
0.941289
0.934032
0.928544
0.925188
0.923991
0.923933
0.925527
0.928358
0.932
0.936081
0.940321
0.944533
0.948603
0.952463
0.956089
0.959457
0.962575
0.965443
0.968071
0.970473
0.972664
0.974657
0.976467
0.978106
0.979589
0.980931
0.982141
0.983229
0.984212
0.985097
0.985888
0.9866
0.987238
0.987809
0.988316
0.988771
0.989176
0.989535
0.989855
0.990135
0.990381
0.990594
0.990782
0.990945
0.991082
0.991201
0.991298
0.99138
0.991445
0.991494
0.991531
0.991553
0.991568
0.991571
0.991564
0.991548
0.991522
0.991492
0.991451
0.991406
0.991352
0.991295
0.99123
0.99116
0.991084
0.991003
0.990914
0.990819
0.990719
0.990613
0.990499
0.990376
0.990247
0.99011
0.989963
0.989807
0.98964
0.989464
0.989274
0.989068
0.988851
0.988611
0.988355
0.98808
0.987776
0.987448
0.987091
0.986695
0.986266
0.985791
0.985266
0.984689
0.984047
0.983338
0.982548
0.981672
0.980695
0.979606
0.978391
0.977034
0.975517
0.973822
0.971923
0.969801
0.967422
0.96475
0.961751
0.958372
0.954554
0.950221
0.94527
0.939575
0.93294
0.925078
0.915516
0.903394
0.88688
0.860933
0.803397
0.591432
0.972911
0.986408
0.987588
0.987909
0.988181
0.988647
0.989726
0.991609
0.994286
0.997458
1
1
0.999998
0.999997
0.995706
0.986905
0.975564
0.963407
0.951501
0.94045
0.93058
0.922201
0.915841
0.91229
0.910857
0.911808
0.914932
0.919375
0.924436
0.929653
0.934763
0.939641
0.944213
0.948461
0.952389
0.956001
0.959315
0.962352
0.965124
0.967653
0.969957
0.97205
0.973951
0.975673
0.977238
0.978652
0.979928
0.981085
0.982127
0.983067
0.983913
0.984674
0.985358
0.985972
0.986523
0.987012
0.987451
0.987843
0.988192
0.988499
0.988769
0.989007
0.989215
0.989396
0.989552
0.989685
0.989794
0.989885
0.989961
0.990017
0.990062
0.990089
0.990105
0.990108
0.990102
0.990085
0.990058
0.990023
0.98998
0.989929
0.989869
0.989802
0.989729
0.989648
0.989563
0.989472
0.989371
0.989264
0.989151
0.989028
0.9889
0.988763
0.988617
0.988461
0.988296
0.988119
0.987934
0.987733
0.987518
0.987291
0.987045
0.986782
0.986495
0.986188
0.985853
0.985493
0.985097
0.984666
0.984196
0.983679
0.983113
0.982489
0.981801
0.981045
0.980207
0.97928
0.978252
0.977114
0.975852
0.974448
0.972885
0.971152
0.969218
0.967064
0.964661
0.961976
0.958972
0.955597
0.951796
0.947494
0.942596
0.936968
0.930421
0.922677
0.913263
0.901326
0.885028
0.859329
0.801987
0.590063
0.973926
0.98633
0.987272
0.987378
0.98747
0.987879
0.98894
0.990928
0.993843
0.997336
0.999997
0.999997
0.999998
0.999996
0.994552
0.983683
0.970199
0.956197
0.942769
0.930427
0.919307
0.909583
0.901885
0.897983
0.896702
0.899928
0.905771
0.912461
0.919071
0.925272
0.931003
0.936276
0.941112
0.945542
0.949596
0.953303
0.956689
0.959784
0.962607
0.965178
0.967523
0.969662
0.971602
0.973363
0.974962
0.976417
0.977733
0.978924
0.980001
0.980974
0.981853
0.982646
0.983361
0.984004
0.984582
0.985099
0.985563
0.985975
0.986344
0.986672
0.98696
0.987212
0.987436
0.987629
0.987793
0.987937
0.988055
0.988151
0.988231
0.98829
0.988335
0.988365
0.988379
0.988381
0.988372
0.988352
0.988318
0.988276
0.988226
0.988165
0.988098
0.98802
0.987936
0.987845
0.987747
0.987641
0.987525
0.987404
0.987275
0.987137
0.98699
0.986835
0.98667
0.986496
0.986311
0.986115
0.985905
0.985683
0.985445
0.98519
0.984919
0.984627
0.984313
0.983977
0.98361
0.983216
0.982786
0.982319
0.981811
0.981257
0.980651
0.979986
0.979257
0.978457
0.977576
0.976605
0.975535
0.974355
0.973048
0.971609
0.970012
0.968244
0.966284
0.96411
0.961692
0.959001
0.955994
0.952635
0.94886
0.944598
0.939755
0.934205
0.927759
0.920135
0.910881
0.899134
0.88306
0.857596
0.800385
0.588284
0.974529
0.986175
0.98689
0.986745
0.986598
0.986965
0.987981
0.990069
0.993244
0.997137
1
1
0.999998
1
0.993209
0.979974
0.964226
0.948459
0.933705
0.920313
0.908081
0.896837
0.886787
0.879013
0.882194
0.893016
0.902782
0.910322
0.917244
0.923631
0.92953
0.934762
0.939531
0.943874
0.947841
0.951471
0.954787
0.957818
0.960588
0.963117
0.965429
0.967535
0.969461
0.971207
0.9728
0.974247
0.975567
0.976763
0.977848
0.978833
0.97972
0.980524
0.981251
0.981907
0.982497
0.983026
0.9835
0.983927
0.984304
0.984641
0.984938
0.985199
0.985427
0.985624
0.985796
0.985939
0.986059
0.986158
0.986236
0.986295
0.986337
0.986362
0.986371
0.986367
0.986351
0.98632
0.986279
0.986228
0.986166
0.986094
0.986014
0.985922
0.985825
0.985718
0.985605
0.985482
0.985352