/*--------------------------------*- C++ -*----------------------------------*\
  =========                 |
  \\      /  F ield         | OpenFOAM: The Open Source CFD Toolbox
   \\    /   O peration     | Website:  https://openfoam.org
    \\  /    A nd           | Version:  13
     \\/     M anipulation  |
\*---------------------------------------------------------------------------*/
FoamFile
{
    format      ascii;
    class       volScalarField;
    location    "24.831886";
    object      T;
}
// * * * * * * * * * * * * * * * * * * * * * * * * * * * * * * * * * * * * * //

dimensions      [0 0 0 1 0 0 0];

internalField   nonuniform List<scalar> 
5712
(
507.736
507.173
506.26
505.398
504.116
503.232
501.239
500.511
501.925
501.076
504.191
503.34
505.88
505.084
507.175
506.572
503.36
502.227
501.852
500.282
499.844
498.401
498.445
496.603
509.548
512.59
508.952
511.802
508.138
511.049
507.207
509.965
504.904
506.626
503.339
505.514
509.161
507.345
500.012
497.276
498.465
496.418
496.796
494.465
494.98
493.209
503.061
500.226
501.417
499.259
505.54
502.788
516.104
518.266
514.651
516.911
514.545
517.253
512.817
515.323
512.28
515.919
509.558
512.959
507.438
510.807
504.985
508.412
502.452
501.947
500.064
499.815
497.775
497.151
495.846
495.234
504.175
504.756
506.951
507.01
498.042
498.049
496.21
496.581
494.11
493.625
492.482
492.253
501.896
502.888
499.865
501.372
508.258
512.335
509.727
514.289
511.225
515.385
512.068
516.797
505.797
509.772
507.798
512.279
503.604
507.527
506.27
510.685
521.182
525.848
521.956
526.563
519.742
524.107
521.152
525.558
517.329
520.706
519.792
523.429
505.813
500.301
510.855
514.663
518.894
501.184
507.024
513.071
517.13
521.665
499.581
504.765
509.816
514.653
519.487
530.166
532.382
532.418
534.36
527.994
530.535
530.941
533.039
524.202
527.057
528.401
530.898
502.626
505.007
509.008
512.19
514.934
518.211
519.656
522.872
525.992
529.172
500.66
502.593
506.478
509.744
511.962
515.657
517.476
521.447
524.527
528.676
503.546
507.177
500.956
504.189
497.826
499.043
495.494
496.284
506.804
511.036
509.332
513.827
498.765
502.004
497.327
500.422
493.62
494.387
492.259
492.889
504.515
508.818
503.065
507.268
513.535
518.616
521.957
528.069
515.585
520.926
523.346
529.355
511.654
516.57
520.635
526.644
509.881
514.847
518.779
524.472
533.264
534.467
536.486
533.598
534.269
536.137
531.869
533.299
535.431
532.535
533.305
535.309
529.004
530.804
533.163
530.926
531.969
534.209
507.939
511.271
514.827
515.633
518.607
521.803
521.406
524.029
526.899
525.514
527.77
530.53
529.662
531.033
533.647
505.329
509.079
513.108
514.156
518.093
522.119
520.149
523.688
527.354
525.02
527.796
531.094
529.636
531.362
534.372
493.68
492.503
492.612
491.091
496.446
495.003
495.226
493.431
493.409
491.249
493.108
491.11
492.667
490.75
492.145
490.363
490.442
491.465
489.75
490.965
490.224
489.377
489.881
488.477
491.98
490.433
489.716
488.338
488.753
487.471
488.842
487.503
489.079
487.215
489.439
487.736
488.702
486.81
488.765
487.065
488.299
486.264
487.685
485.891
487.205
485.691
486.068
484.903
491.034
490.043
489.632
488.545
493.93
493.074
492.309
491.397
487.815
486.524
489.052
487.842
488.283
487.258
486.95
486.128
490.79
489.962
489.328
488.708
486.62
485.383
485.394
484.376
486.336
484.852
485.268
484.492
487.339
485.686
486.418
485.452
485.353
484.104
484.264
483.664
484.278
483.303
483.382
482.945
489.328
490.441
487.482
488.596
489.221
490.393
487.3
488.454
489.052
490.101
487.005
488.035
492.152
495.63
490.024
488.349
486.655
496.441
493.002
491.056
489.403
487.561
494.899
491.507
489.111
487.548
486.404
492.267
494.742
490.42
492.804
492.056
494.429
490.092
492.378
491.567
493.823
489.464
491.595
497.524
499.521
493.86
495.881
491.834
493.882
490.28
492.347
488.525
490.538
495.597
496.822
492.112
493.339
489.778
491.198
488.332
490.031
487.333
489.367
489.927
490.48
488.402
488.578
493.073
493.536
491.262
491.24
486.62
487.272
487.938
488.905
487.223
487.116
486.111
485.902
489.853
489.56
488.61
488.192
485.554
485.957
484.556
484.87
485.609
486.768
485.322
487.007
486.803
488.243
486.251
488.145
484.629
485.547
484.52
486.004
483.794
484.623
483.783
485.084
498.092
501.45
504.653
496.883
500.667
503.876
497.584
500.989
504.266
496.29
500.1
503.451
496.799
500.148
503.481
495.33
499.323
502.902
502.194
505.496
509.067
498.589
501.986
505.617
496.611
500.137
503.819
495.213
498.72
502.282
494.292
498.497
502.398
498.996
502.591
506.64
495.59
499.231
503.282
493.726
497.556
501.715
492.955
496.962
501.149
493.287
497.702
501.993
486.747
488.658
492.922
500.451
487.378
489.404
493.809
501.413
486.462
488.434
492.712
500.312
486.861
488.995
493.437
501.061
486.082
488.146
492.253
499.631
485.914
488.185
492.55
500.086
486.012
488.494
493.164
500.891
485.581
488.307
493.163
500.948
485.197
487.584
491.856
499.323
485.307
487.83
491.762
498.489
485.817
488
491.883
498.823
485.996
488.311
491.983
498.327
484.689
487.279
491.87
499.606
484.705
487.411
491.559
498.438
484.167
486.955
491.701
499.4
484.177
487.044
491.307
498.155
486.869
488.608
492.504
499.592
487.773
489.301
492.663
498.866
486.783
488.568
492.415
499.46
487.726
489.31
492.657
498.806
486.658
488.533
492.264
499.11
487.523
489.236
492.592
498.668
486.61
488.603
492.161
498.613
487.33
489.183
492.502
498.412
486.684
488.805
492.215
498.132
489.16
490.507
493.568
497.999
490.718
491.955
495.07
499.21
488.979
490.41
493.492
497.916
490.528
491.863
495.015
499.171
488.65
490.238
493.391
497.844
490.199
491.706
494.933
499.099
488.176
489.98
493.195
497.671
489.753
491.478
494.798
498.997
487.568
489.641
492.958
497.48
489.233
491.217
494.651
498.896
486.418
488.986
492.642
497.331
487.92
490.456
494.171
498.568
486.982
489.315
492.808
497.419
488.572
490.839
494.414
498.727
485.911
488.678
492.49
497.262
487.319
490.094
493.952
498.396
485.423
488.36
492.275
497.087
486.767
489.742
493.719
498.21
511.819
520.982
528.785
535.129
540.002
512.375
521.44
529.223
535.561
540.431
511.754
520.948
528.764
535.113
539.988
512.276
521.374
529.172
535.518
540.391
511.629
520.893
528.728
535.084
539.962
511.874
521.028
528.848
535.204
540.083
512.093
521.26
529.092
535.454
540.336
511.96
521.162
529.018
535.395
540.283
511.548
520.847
528.7
535.065
539.947
511.996
521.505
529.387
535.754
540.633
511.648
521.008
528.862
535.223
540.102
512.139
521.657
529.533
535.894
540.77
511.539
520.847
528.711
535.084
539.97
512.045
521.575
529.469
535.843
540.725
511.401
520.754
528.643
535.029
539.92
512.011
521.584
529.498
535.883
540.769
511.878
521.191
529.016
535.361
540.232
512.532
521.983
529.818
536.157
541.023
511.863
521.205
529.04
535.388
540.26
512.515
521.984
529.825
536.167
541.034
511.873
521.273
529.122
535.475
540.349
512.52
522.021
529.872
536.218
541.087
512.065
521.559
529.424
535.781
540.656
512.631
522.159
530.019
536.37
541.24
512.457
521.985
529.854
536.21
541.083
542.202
543.558
541.592
542.975
540.474
542.011
539.048
540.852
537.613
539.706
535.314
537.72
536.482
538.841
534.169
536.484
532.985
535.089
556.705
572.669
586.259
597.088
604.836
556.506
572.584
586.331
597.231
605.105
556.428
572.523
586.168
597.022
604.779
556.256
572.477
586.241
597.208
605.066
555.871
572.212
585.966
596.873
604.652
555.718
572.178
586.048
597.066
604.945
555.116
571.767
585.671
596.655
604.467
555.027
571.771
585.779
596.869
604.779
554.234
571.204
585.287
596.37
604.225
554.279
571.292
585.451
596.622
604.567
552.317
569.808
584.256
595.56
603.508
552.542
570.039
584.53
595.89
603.904
553.279
570.525
584.798
595.994
603.898
553.458
570.719
585.043
596.306
604.284
551.357
569.073
583.689
595.101
603.097
551.513
569.252
583.919
595.391
603.451
550.38
568.314
583.099
594.623
602.671
550.397
568.413
583.251
594.847
602.982
490.024
491.957
493.899
491.681
495.201
494.846
494.692
494.207
495.275
494.623
497.927
497.176
499.441
498.591
497.455
496.738
496.722
496.216
496.632
496.241
492.007
491.732
499.316
502.218
502.898
503.3
500.672
497.989
501.029
497.818
503.768
507.768
498.9
499.767
502.895
499.881
501.12
501.544
495.589
495.776
497.755
497.299
496.335
495.84
496.828
497.795
501.226
500.727
499.151
498.627
493.092
492.622
493.879
493.581
494.701
494.654
497.001
499.491
496.848
488.268
486.435
485.733
485.982
487.188
488.914
487.359
486.751
487.155
488.675
497.331
496.429
496.373
497.21
498.975
500.296
499.463
499.476
500.364
502.152
500.951
500.086
500.063
500.923
502.694
501.381
500.549
500.562
501.449
503.234
498.706
497.822
497.785
498.634
500.403
493.888
491.483
490.282
490.154
491.052
496.65
494.038
492.746
492.597
493.613
494.848
493.002
492.088
492.266
493.668
499.693
497.166
495.968
495.929
497.154
503.779
501.177
499.954
499.902
501.129
496.504
495.154
494.671
495.179
496.767
497.007
495.322
494.547
494.839
496.31
500.211
498.581
497.849
498.173
499.66
497.634
496.434
496.087
496.696
498.337
498.743
497.408
496.936
497.452
499.042
499.335
498.171
497.856
498.487
500.138
491.827
489.789
488.824
488.862
489.917
493.136
491.581
490.914
491.273
492.776
495.472
494.24
493.863
494.451
496.084
495.112
493.984
493.707
494.371
496.045
493.992
492.705
492.28
492.829
494.441
493.617
492.455
492.148
492.79
494.453
494.741
493.728
493.565
494.32
496.044
495.719
494.713
494.555
495.312
497.035
499.167
498.171
498.018
498.775
500.493
498.72
497.787
497.698
498.506
500.253
496.999
495.904
495.656
496.341
498.024
496.536
495.511
495.333
496.074
497.787
489.453
487.562
486.783
486.969
488.107
489.963
488.481
487.916
488.353
489.898
490.822
489.121
488.355
488.591
489.878
491.184
489.875
489.439
489.981
491.589
492.42
491.207
490.854
491.46
493.104
492.07
490.578
489.962
490.356
491.878
494.896
493.862
493.676
494.413
496.127
497.477
496.539
496.448
497.256
499.004
494.689
493.594
493.349
494.039
495.727
490.484
491.719
490.591
491.961
487.85
489.279
487.783
489.048
490.718
490.896
492.029
491.777
487.914
488.024
489.225
488.867
493.33
496.157
494.448
497.165
493.357
495.912
494.667
497.174
494.724
493.566
494.118
493.347
495.543
496.712
493.655
495.05
493.037
494.549
490.942
492.4
490.107
491.517
496.294
497.788
495.434
497.126
498.341
500.125
498.793
501.131
499.679
501.91
498.604
501.373
499.739
502.198
498.133
501.861
498.918
502.24
500.427
503.828
502.462
505.926
491.814
492.596
492.437
493.325
488.328
488.62
488.987
489.259
495.79
497.932
495.221
497.174
493.431
494.208
494.706
495.299
489.951
490.074
491.129
491.064
496.805
498.848
498.191
500.028
499.334
503.448
502.775
507.408
498.934
503.359
502.12
507
500.321
504.26
503.667
508.169
501.792
505.676
504.893
509.313
498.918
500.213
501.511
503.568
498.709
499.773
501.885
503.862
498.334
498.902
502.565
504.2
491.654
488.053
495.218
499.108
504.166
487.929
491.346
494.9
498.993
505.009
488.277
492.165
496.7
501.725
506.997
502.375
503.399
509.082
511.084
501.374
502.399
508.693
510.692
499.897
500.748
508.23
510.243
488.023
488.599
491.672
492.351
495.534
496.221
500.265
501.135
508.893
511.044
488.325
488.953
492.608
493.976
497.545
499.268
503.342
505.398
511.256
513.858
493.717
496.074
494.407
496.837
488.83
489.194
489.438
489.707
499.98
503.408
499.159
502.401
495.009
497.797
496.093
499.074
490.139
490.575
491.112
491.658
500.587
504.434
501.778
505.863
506.729
511.137
515.41
520.957
505.53
509.802
513.789
518.979
507.659
512.228
516.789
522.511
508.531
513.412
517.553
523.178
503.859
504.805
509.911
510.136
502.884
503.929
509.669
509.819
501.462
502.943
509.441
509.683
489.79
491.886
493.632
495.613
497.349
499.078
502.069
503.708
509.953
510.12
490.182
492.451
495.873
497.973
500.954
502.572
506.152
506.985
511.616
511.421
483.61
483.555
484.887
484.382
485.495
485.458
486.831
486.313
482.317
481.483
483.525
482.652
482.357
481.569
483.672
482.816
483.478
482.355
483.289
482.455
481.759
482.836
485.569
486.978
487.487
488.865
485.022
486.607
484.513
485.944
484.337
485.805
481.071
481
482.209
482.078
481.052
480.905
482.266
482.014
481.069
480.78
481.985
481.565
483.335
482.773
484.652
483.842
483.268
483.258
483.868
483.703
485.435
485.453
486.07
485.999
482.457
482.227
481.901
481.86
484.745
484.348
485.787
485.15
486.987
486.733
488.087
487.625
483.293
482.789
484.287
483.505
481.535
481.148
481.487
481.416
481.029
480.804
481.181
481.201
482.329
481.758
481.973
481.793
483.263
482.503
482.61
482.314
480.554
480.704
480.558
480.829
480.612
480.784
480.564
480.865
480.777
480.917
480.625
480.897
483.041
485.169
481.703
480.902
480.803
485.179
483.133
481.815
481.019
480.983
485.164
483.06
481.723
481.086
481.171
481.45
482.782
481.708
483.114
481.417
482.664
481.635
482.983
481.397
482.505
481.534
482.768
485.208
485.767
483.164
483.837
481.977
482.8
481.327
482.28
481.489
482.613
485.067
485.36
483.005
483.382
481.794
482.405
481.314
482.204
481.605
482.737
483.032
483.082
483.567
483.415
485.186
485.042
485.818
485.427
482.309
482.598
481.865
482.312
484.354
484.052
485.158
484.901
486.672
486.139
487.558
487.079
482.976
483.172
483.7
483.956
481.822
482.583
482.182
483.356
481.467
482.36
481.846
483.073
482.34
483.056
482.63
483.835
483.003
483.775
483.158
484.386
484.431
486.007
485.169
487.005
484.199
485.891
485.01
486.952
483.98
485.862
484.771
487.026
486.948
489.052
485.123
487.261
484.139
486.277
483.743
485.939
484.623
487.284
486.371
488.786
484.541
487.047
483.811
486.411
483.903
486.596
484.943
487.958
482.449
485.77
490.958
499.127
483.436
486.746
491.992
500.179
482.39
485.694
490.862
499.087
483.342
486.617
491.813
499.968
482.349
485.627
490.545
498.51
482.957
486.181
491.167
499.152
484.028
487.147
492.232
500.255
484.861
487.817
492.824
500.713
482.644
485.845
490.64
498.476
483.136
486.344
490.699
497.7
482.471
485.733
490.318
497.762
483.014
486.284
490.571
497.332
483.064
486.169
491.083
499.04
483.375
486.497
490.89
497.917
483.605
486.57
491.428
499.203
483.726
486.734
491.078
497.974
482.11
485.431
490.347
498.129
482.529
485.842
490.315
497.239
482.173
485.486
490.331
498.065
482.628
485.941
490.376
497.238
482.33
485.632
490.303
497.815
482.76
486.072
490.454
497.213
482.634
485.93
490.344
497.407
482.941
486.254
490.524
497.082
483.058
486.36
490.537
496.978
483.549
486.861
491.102
496.133
484.904
488.224
492.525
497.207
483.552
486.868
491.093
496.104
484.913
488.241
492.538
497.22
483.587
486.909
491.139
496.155
484.954
488.293
492.594
497.252
483.636
486.968
491.15
496.148
485.004
488.36
492.646
497.294
483.73
487.068
491.181
496.135
485.097
488.475
492.742
497.372
484.214
487.485
491.565
496.463
485.449
488.786
492.987
497.61
483.933
487.254
491.361
496.292
485.217
488.593
492.832
497.455
484.571
487.762
491.822
496.706
485.817
489.073
493.224
497.803
484.975
488.053
492.05
496.897
486.271
489.404
493.478
498.013
511.034
520.5
528.484
534.926
539.843
511.625
520.976
528.932
535.365
540.278
511.037
520.509
528.489
534.928
539.843
511.62
520.969
528.918
535.347
540.257
510.995
520.506
528.487
534.922
539.835
511.329
520.692
528.638
535.063
539.972
511.713
521.025
528.944
535.356
540.258
511.816
521.073
528.962
535.358
540.253
511.057
520.547
528.512
534.938
539.848
511.561
521.242
529.223
535.644
540.547
511.069
520.657
528.643
535.076
539.986
511.619
521.344
529.338
535.764
540.668
511.2
520.639
528.581
534.996
539.901
511.748
521.395
529.357
535.768
540.665
511.283
520.681
528.597
534.999
539.897
511.907
521.521
529.459
535.857
540.749
511.055
520.693
528.705
535.152
540.069
511.682
521.474
529.501
535.945
540.857
511.089
520.737
528.747
535.192
540.107
511.703
521.498
529.523
535.964
540.875
511.177
520.853
528.86
535.299
540.212
511.779
521.578
529.596
536.033
540.942
511.443
521.186
529.192
535.625
540.534
511.976
521.768
529.776
536.206
541.112
511.884
521.641
529.64
536.067
540.97
523.305
524.864
523.527
525.121
524.034
525.67
524.84
526.443
526.133
527.515
529.415
531.212
527.943
529.504
530.685
532.666
531.838
533.85
543.009
562.975
579.112
591.471
599.958
542.591
562.772
579.122
591.577
600.21
543.21
563.117
579.212
591.548
600.021
542.852
562.972
579.231
591.707
600.296
543.619
563.397
579.41
591.698
600.147
543.25
563.24
579.419
591.847
600.415
544.254
563.829
579.717
591.935
600.351
543.836
563.633
579.696
592.06
600.598
545.16
564.436
580.156
592.281
600.651
544.592
564.133
580.055
592.341
600.842
547.325
565.933
581.257
593.144
601.388
546.959
565.729
581.209
593.227
601.576
546.227
565.145
580.672
592.686
601.001
545.677
564.833
580.558
592.729
601.166
548.369
566.727
581.862
593.624
601.798
548.183
566.642
581.891
593.756
602.019
549.391
567.534
582.489
594.129
602.237
549.312
567.555
582.579
594.305
602.505
488.21
490.034
488.505
486.603
483.619
484.853
483.613
485.016
485.494
486.945
485.473
486.726
513.042
512.6
511.536
509.864
507.619
504.92
513.168
512.746
511.732
510.162
508.106
505.694
514.054
515.541
513.555
514.974
512.364
513.626
510.469
511.447
507.945
508.664
505.019
505.787
502.024
499.269
496.88
494.886
493.383
492.319
503.121
500.617
498.356
496.449
494.976
493.97
511.237
510.525
510.653
511.622
513.436
510.791
510.075
510.199
511.166
512.979
509.719
508.996
509.113
510.076
511.888
508.033
507.297
507.403
508.358
510.169
505.768
505.012
505.098
506.041
507.848
503.04
502.252
502.308
503.229
505.03
511.361
510.648
510.774
511.741
513.553
510.935
510.218
510.339
511.304
513.115
509.913
509.187
509.301
510.261
512.072
508.329
507.59
507.691
508.643
510.451
506.253
505.493
505.575
506.513
508.318
503.812
503.022
503.074
503.992
505.789
512.252
511.543
511.672
512.641
514.452
513.744
513.036
513.166
514.133
515.941
511.75
511.037
511.162
512.129
513.94
513.173
512.461
512.587
513.552
515.36
510.55
509.829
509.947
510.91
512.721
511.816
511.096
511.214
512.175
513.983
508.641
507.907
508.013
508.968
510.778
509.621
508.886
508.991
509.943
511.75
506.095
505.339
505.426
506.367
508.174
506.813
506.053
506.135
507.072
508.875
503.138
502.349
502.404
503.324
505.124
503.903
503.108
503.157
504.07
505.865
500.099
499.264
499.275
500.162
501.949
497.283
496.381
496.326
497.164
498.93
494.808
493.813
493.669
494.439
496.171
492.695
491.578
491.322
492.006
493.694
491.052
489.815
489.457
490.063
491.71
489.896
488.593
488.184
488.753
490.379
501.199
500.366
500.377
501.264
503.049
498.642
497.751
497.707
498.552
500.319
496.316
495.353
495.239
496.032
497.775
494.332
493.289
493.1
493.836
495.55
492.785
491.67
491.418
492.106
493.797
491.736
490.585
490.302
490.968
492.649
512.856
512.042
510.603
508.55
505.916
502.814
512.983
512.19
510.806
508.867
506.45
503.699
513.861
515.339
512.976
514.366
511.392
512.605
509.096
509.996
506.162
506.788
502.771
503.371
499.538
496.526
494.088
492.405
491.644
491.69
500.851
498.204
496.006
494.442
493.61
493.484
511.051
510.34
510.469
511.44
513.254
510.234
509.52
509.648
510.618
512.434
508.788
508.069
508.193
509.162
510.979
506.724
505.996
506.112
507.078
508.897
504.073
503.33
503.434
504.392
506.212
500.947
500.181
500.263
501.208
503.026
511.177
510.464
510.591
511.56
513.373
510.381
509.666
509.791
510.76
512.574
508.99
508.269
508.39
509.357
511.173
507.039
506.308
506.421
507.383
509.2
504.605
503.858
503.957
504.911
506.727
501.83
501.06
501.137
502.077
503.89
512.06
511.351
511.481
512.451
514.263
513.542
512.835
512.965
513.934
515.743
511.171
510.46
510.588
511.559
513.373
512.565
511.856
511.984
512.953
514.764
509.58
508.864
508.988
509.957
511.773
510.796
510.081
510.205
511.173
512.986
507.272
506.546
506.663
507.629
509.447
508.175
507.449
507.565
508.529
510.345
504.32
503.579
503.683
504.642
506.462
504.947
504.204
504.307
505.263
507.08
500.905
500.141
500.226
501.173
502.992
501.506
500.741
500.824
501.768
503.585
497.636
496.834
496.884
497.807
499.618
494.574
493.72
493.719
494.605
496.402
492.063
491.131
491.056
491.886
493.657
490.268
489.223
489.043
489.793
491.522
489.36
488.184
487.889
488.549
490.229
489.286
488.007
487.623
488.214
489.853
498.949
498.144
498.189
499.106
500.912
496.256
495.403
495.402
496.286
498.078
493.998
493.08
493.018
493.855
495.626
492.358
491.361
491.223
492.003
493.746
491.446
490.367
490.153
490.875
492.588
491.261
490.123
489.855
490.534
492.223
490.91
490.877
496.161
499.519
499.521
500.411
497.369
488.881
489.721
489.633
491.9
492.29
491.581
493.987
494.259
495.611
488.84
489.493
492.034
492.395
490.861
491.394
493.346
493.748
496.518
496.686
494.031
494.147
489.878
490.269
489.057
490.293
490.737
489.505
493.071
495.749
492.403
487.234
485.496
484.864
485.172
486.436
488.096
486.587
486.025
486.466
488.012
494.219
493.377
493.388
494.284
496.087
497.623
496.829
496.886
497.815
499.63
497.617
496.811
496.856
497.775
499.584
498.522
497.734
497.796
498.728
500.542
495.447
494.626
494.657
495.568
497.376
485.64
484.09
483.559
483.964
485.244
486.573
485.094
484.631
485.1
486.474
487.191
485.903
485.515
486.106
487.746
489.052
487.723
487.369
487.94
489.503
490.174
489.153
488.998
489.768
491.509
489.315
488.167
487.903
488.589
490.283
491.945
490.994
490.902
491.719
493.483
492.184
491.198
491.072
491.862
493.611
493.596
492.671
492.602
493.434
495.204
485.644
484.114
483.598
484.016
485.329
487.156
485.944
485.619
486.257
487.925
489.948
488.956
488.827
489.617
491.369
490.345
489.389
489.293
490.109
491.874
488.711
487.659
487.476
488.225
489.956
489.294
488.289
488.147
488.928
490.676
491.327
490.403
490.337
491.175
492.952
491.756
490.859
490.819
491.677
493.463
494.556
493.689
493.675
494.55
496.34
494.746
493.904
493.915
494.809
496.611
492.021
491.104
491.044
491.885
493.662
492.158
491.265
491.227
492.087
493.873
486.426
484.801
484.223
484.583
485.883
487.703
486.335
485.885
486.42
488.028
486.269
484.867
484.384
484.86
486.308
488.002
486.824
486.526
487.184
488.863
488.57
487.501
487.3
488.034
489.757
487.145
485.911
485.56
486.175
487.833
491.051
490.127
490.061
490.899
492.676
493.799
492.947
492.95
493.839
495.638
490.357
489.405
489.313
490.132
491.899
493.284
491.558
490.81
490.991
492.037
494.175
490.067
490.216
487.382
487.306
490.386
490.673
487.509
487.702
493.033
496.167
493.076
495.887
493.397
493.275
495.397
489.968
490.135
487.254
487.158
490.325
490.62
487.412
487.661
493.175
496.484
493.212
496.127
493.524
493.331
495.609
489.992
490.177
487.217
487.096
490.388
490.703
487.411
487.68
493.318
497.339
493.363
496.87
493.685
493.484
496.239
490.589
490.776
487.753
487.621
491.01
491.383
487.963
488.277
494.137
498.403
494.151
497.902
494.445
494.214
497.142
491.679
491.861
488.856
488.721
492.1
492.539
489.068
489.387
495.252
499.254
495.251
498.86
495.506
495.355
498.121
493.654
493.825
490.885
490.753
494.03
494.411
491.094
491.391
497.026
500.705
496.994
500.337
497.212
497.045
499.592
483.134
483.136
485.004
484.976
483.212
483.293
485.087
485.216
481.857
480.947
481.932
481.091
481.979
482.169
481.393
482.976
483.006
484.864
484.812
483.123
483.254
484.986
485.138
481.641
480.911
481.758
481.098
481.887
482.143
481.428
482.897
482.963
484.806
484.724
483.134
483.315
484.975
485.185
481.716
481.308
481.866
481.479
482.074
482.347
481.789
483.422
483.514
485.331
485.23
483.724
483.966
485.527
485.755
482.374
482.27
482.551
482.432
482.831
483.161
482.728
484.564
484.669
486.453
486.345
484.925
485.244
486.656
486.909
483.638
483.698
483.831
483.831
484.146
484.519
484.079
486.674
486.783
488.525
488.415
487.04
487.327
488.732
488.979
485.757
485.599
485.942
485.748
486.213
486.536
486.004
507.837
507.304
506.282
505.418
504.132
503.247
501.251
500.521
501.938
501.088
504.208
503.357
505.902
505.106
507.297
506.722
503.372
502.234
501.862
500.289
499.852
498.406
498.453
496.608
509.625
512.647
509.057
511.886
508.155
511.062
507.22
509.975
504.914
506.637
503.346
505.522
509.171
507.353
500.018
497.28
498.47
496.422
496.802
494.469
494.984
493.212
503.068
500.23
501.422
499.263
505.547
502.792
516.156
518.316
514.728
516.987
514.553
517.26
512.822
515.328
512.287
515.925
509.564
512.964
507.444
510.811
504.989
508.415
502.457
501.951
500.069
499.818
497.779
497.154
495.85
495.237
504.18
504.759
506.957
507.014
498.046
498.052
496.213
496.583
494.113
493.628
492.485
492.256
501.9
502.891
499.869
501.374
508.262
512.339
509.73
514.293
511.23
515.39
512.072
516.8
505.801
509.776
507.801
512.282
503.607
507.53
506.273
510.688
521.243
525.914
522
526.606
519.746
524.109
521.159
525.563
517.333
520.709
519.797
523.433
505.817
500.304
510.859
514.667
518.898
501.187
507.027
513.074
517.133
521.669
499.584
504.769
509.819
514.656
519.49
530.233
532.449
532.457
534.396
527.995
530.533
530.943
533.04
524.204
527.058
528.403
530.9
502.628
505.009
509.011
512.193
514.937
518.213
519.659
522.874
525.995
529.174
500.662
502.596
506.481
509.746
511.965
515.66
517.479
521.449
524.53
528.678
503.549
507.18
500.959
504.192
497.829
499.045
495.497
496.287
506.807
511.039
509.335
513.83
498.767
502.006
497.329
500.424
493.622
494.389
492.261
492.891
504.518
508.82
503.067
507.27
513.538
518.619
521.96
528.072
515.589
520.93
523.349
529.357
511.657
516.573
520.638
526.647
509.884
514.849
518.781
524.474
533.322
534.519
536.535
533.634
534.302
536.167
531.868
533.299
535.432
532.537
533.308
535.313
529.004
530.805
533.165
530.928
531.971
534.212
507.941
511.273
514.828
515.636
518.609
521.805
521.408
524.031
526.901
525.515
527.772
530.532
529.664
531.035
533.649
505.331
509.081
513.11
514.158
518.095
522.121
520.151
523.69
527.355
525.022
527.798
531.095
529.638
531.364
534.375
493.684
492.507
492.615
491.094
496.452
495.008
495.231
493.435
493.45
491.291
493.168
491.168
492.669
490.752
492.145
490.363
490.443
491.468
489.753
490.967
490.226
489.378
489.884
488.479
491.984
490.435
489.717
488.339
488.755
487.473
488.844
487.504
489.113
487.238
489.491
487.777
488.704
486.812
488.766
487.065
488.3
486.265
487.686
485.892
487.206
485.692
486.07
484.904
491.036
490.045
489.635
488.547
493.933
493.077
492.312
491.399
487.817
486.526
489.055
487.844
488.285
487.259
486.952
486.129
490.793
489.964
489.33
488.71
486.622
485.385
485.395
484.378
486.337
484.853
485.269
484.493
487.341
485.687
486.42
485.453
485.354
484.105
484.265
483.665
484.28
483.304
483.383
482.946
489.349
490.455
487.494
488.603
489.223
490.394
487.302
488.456
489.053
490.102
487.007
488.037
492.154
495.633
490.026
488.35
486.656
496.443
493.004
491.057
489.404
487.562
494.902
491.509
489.113
487.549
486.405
492.279
494.757
490.423
492.81
492.056
494.428
490.093
492.379
491.568
493.823
489.465
491.596
497.526
499.523
493.862
495.883
491.835
493.884
490.282
492.348
488.527
490.54
495.599
496.824
492.114
493.341
489.78
491.199
488.334
490.032
487.334
489.369
489.929
490.482
488.404
488.58
493.076
493.538
491.265
491.242
486.621
487.274
487.94
488.907
487.225
487.117
486.113
485.904
489.855
489.562
488.611
488.193
485.556
485.959
484.558
484.872
485.611
486.769
485.324
487.008
486.805
488.245
486.252
488.146
484.631
485.549
484.521
486.005
483.795
484.624
483.784
485.085
498.109
501.471
504.674
496.889
500.677
503.888
497.583
500.988
504.266
496.292
500.102
503.453
496.8
500.149
503.481
495.331
499.325
502.903
502.196
505.498
509.069
498.591
501.988
505.618
496.612
500.138
503.82
495.214
498.721
502.283
494.293
498.498
502.399
498.998
502.593
506.641
495.591
499.233
503.284
493.727
497.558
501.716
492.956
496.964
501.151
493.289
497.704
501.994
486.764
488.671
492.937
500.47
487.41
489.431
493.836
501.441
486.463
488.435
492.712
500.311
486.861
488.995
493.436
501.058
486.083
488.146
492.253
499.63
485.915
488.185
492.549
500.085
486.012
488.494
493.163
500.889
485.581
488.307
493.163
500.948
485.197
487.585
491.856
499.322
485.307
487.83
491.762
498.489
485.818
488.001
491.883
498.822
485.997
488.312
491.984
498.327
484.689
487.279
491.869
499.606
484.706
487.411
491.559
498.437
484.167
486.955
491.7
499.399
484.177
487.044
491.307
498.154
486.875
488.611
492.51
499.604
487.773
489.299
492.663
498.872
486.785
488.569
492.415
499.46
487.728
489.311
492.658
498.806
486.659
488.533
492.264
499.109
487.524
489.237
492.592
498.668
486.611
488.604
492.162
498.613
487.331
489.183
492.502
498.411
486.685
488.806
492.215
498.131
489.156
490.501
493.562
497.999
490.713
491.947
495.061
499.202
488.98
490.411
493.493
497.916
490.53
491.864
495.017
499.172
488.651
490.239
493.391
497.845
490.2
491.707
494.934
499.1
488.177
489.98
493.195
497.671
489.754
491.479
494.798
498.998
487.569
489.641
492.958
497.48
489.234
491.218
494.652
498.896
486.419
488.986
492.642
497.331
487.921
490.456
494.172
498.568
486.983
489.316
492.809
497.418
488.572
490.84
494.414
498.727
485.912
488.679
492.49
497.262
487.32
490.095
493.952
498.396
485.424
488.36
492.275
497.086
486.768
489.742
493.719
498.21
511.825
520.984
528.786
535.13
540.003
512.392
521.453
529.234
535.572
540.442
511.753
520.948
528.763
535.112
539.987
512.273
521.371
529.169
535.514
540.387
511.628
520.892
528.727
535.083
539.961
511.872
521.026
528.846
535.202
540.081
512.092
521.258
529.09
535.452
540.334
511.959
521.161
529.016
535.393
540.281
511.547
520.846
528.698
535.063
539.945
511.995
521.504
529.386
535.753
540.632
511.647
521.007
528.861
535.222
540.1
512.138
521.656
529.531
535.893
540.769
511.538
520.846
528.71
535.083
539.968
512.045
521.574
529.468
535.842
540.723
511.4
520.752
528.641
535.028
539.919
512.01
521.583
529.497
535.882
540.768
511.876
521.186
529.01
535.354
540.225
512.525
521.974
529.808
536.147
541.013
511.864
521.206
529.04
535.388
540.26
512.516
521.985
529.826
536.168
541.035
511.873
521.273
529.121
535.474
540.349
512.52
522.021
529.872
536.218
541.086
512.065
521.558
529.423
535.78
540.655
512.63
522.158
530.019
536.369
541.239
512.457
521.984
529.853
536.209
541.081
542.235
543.583
541.593
542.978
540.475
542.013
539.05
540.854
537.615
539.708
535.316
537.723
536.485
538.843
534.171
536.486
532.987
535.091
556.723
572.68
586.267
597.095
604.842
556.515
572.587
586.331
597.231
605.104
556.43
572.524
586.169
597.023
604.779
556.259
572.479
586.243
597.21
605.067
555.872
572.213
585.967
596.874
604.652
555.72
572.18
586.049
597.068
604.946
555.117
571.768
585.672
596.656
604.468
555.029
571.772
585.781
596.87
604.78
554.236
571.205
585.288
596.371
604.226
554.28
571.293
585.452
596.623
604.568
552.319
569.81