/*--------------------------------*- C++ -*----------------------------------*\
  =========                 |
  \\      /  F ield         | OpenFOAM: The Open Source CFD Toolbox
   \\    /   O peration     | Website:  https://openfoam.org
    \\  /    A nd           | Version:  13
     \\/     M anipulation  |
\*---------------------------------------------------------------------------*/
FoamFile
{
    format      ascii;
    class       volScalarField;
    location    "84.831886";
    object      T;
}
// * * * * * * * * * * * * * * * * * * * * * * * * * * * * * * * * * * * * * //

dimensions      [0 0 0 1 0 0 0];

internalField   nonuniform List<scalar> 
5712
(
897.721
897.412
896.895
896.42
895.662
895.181
893.962
893.571
894.314
893.855
895.649
895.187
896.627
896.19
897.366
897.034
895.27
894.643
894.449
893.587
893.203
892.401
892.448
891.435
898.793
900.565
898.463
900.121
898.011
899.707
897.497
899.101
896.236
897.18
895.36
896.555
898.651
897.645
893.436
891.939
892.598
891.486
891.554
890.292
890.562
889.609
895.216
893.657
894.305
893.128
896.643
895.13
902.599
903.824
901.759
903.033
901.731
903.268
900.742
902.157
900.467
902.542
898.937
900.864
897.756
899.662
896.41
898.346
894.785
894.505
893.482
893.344
892.042
891.688
891.008
890.654
895.877
896.23
897.411
897.467
892.384
892.384
891.392
891.59
890.076
889.787
889.204
889.049
894.626
895.207
893.519
894.383
898.236
900.558
899.11
901.721
899.892
902.272
900.406
903.121
896.874
899.13
898.048
900.606
895.672
897.893
897.213
899.731
905.494
908.161
905.937
908.582
904.686
907.168
905.494
908.018
903.323
905.23
904.743
906.819
896.633
893.386
899.59
901.821
904.259
893.853
897.288
900.817
903.199
905.833
892.994
896.049
899.019
901.844
904.632
910.629
911.846
911.975
913.053
909.376
910.776
911.128
912.292
907.199
908.767
909.676
911.064
894.613
895.876
898.371
900.092
901.844
903.631
904.617
906.386
908.317
910.092
893.552
894.57
896.98
898.765
900.206
902.244
903.433
905.638
907.526
909.855
895.376
897.382
893.944
895.722
892.014
892.596
890.735
891.065
897.364
899.734
898.766
901.283
892.731
894.515
891.952
893.657
889.709
890.023
888.976
889.215
896.093
898.506
895.304
897.664
901.278
904.154
906.15
909.646
902.409
905.428
906.906
910.336
900.238
903.023
905.429
908.868
899.259
902.072
904.397
907.653
912.236
912.799
913.844
912.47
912.716
913.673
911.431
912.122
913.229
911.861
912.159
913.189
909.773
910.675
911.91
910.937
911.381
912.536
897.432
899.218
901.138
901.935
903.508
905.215
905.341
906.705
908.22
907.783
908.934
910.387
910.213
910.824
912.175
896.008
898.009
900.18
901.158
903.26
905.421
904.678
906.544
908.491
907.534
908.947
910.677
910.194
910.984
912.542
889.541
888.895
888.978
888.15
891.192
890.393
890.543
889.558
889.24
887.946
889.083
887.88
888.855
887.703
888.581
887.503
887.674
888.212
887.32
887.954
887.452
887.01
887.515
886.779
888.786
887.964
887.309
886.606
886.805
886.139
886.75
886.064
886.639
885.493
886.86
885.788
886.466
885.288
886.523
885.44
886.296
885.016
885.997
884.836
885.771
884.757
885.189
884.362
888.045
887.484
887.317
886.691
889.774
889.285
888.918
888.389
886.204
885.462
886.841
886.156
886.609
886.009
885.908
885.41
888.113
887.623
887.337
886.954
885.584
884.861
884.944
884.332
885.274
884.282
884.662
884.084
885.785
884.714
885.266
884.589
884.771
883.901
884.135
883.65
884.216
883.492
883.673
883.276
886.693
887.26
885.613
886.201
886.669
887.268
885.529
886.139
886.63
887.17
885.393
885.94
888.583
890.637
887.304
886.294
885.225
891.064
889.031
887.839
886.845
885.708
890.238
888.238
886.812
885.856
885.093
888.239
889.591
887.191
888.502
888.156
889.445
887.029
888.286
887.945
889.163
886.716
887.887
891.618
892.664
889.462
890.523
888.239
889.326
887.302
888.408
886.231
887.334
890.578
891.192
888.528
889.145
887.143
887.875
886.26
887.156
885.596
886.705
887.357
887.574
886.545
886.538
889.22
889.376
888.244
888.113
885.461
885.736
886.158
886.62
885.925
885.748
885.335
885.101
887.491
887.197
886.826
886.463
884.904
885.029
884.378
884.453
884.803
885.377
884.522
885.421
885.439
886.175
885.017
886.037
884.287
884.723
884.099
884.884
883.856
884.238
883.721
884.407
891.433
893.271
895.015
890.765
892.839
894.588
891.174
893.035
894.819
890.455
892.543
894.368
890.786
892.611
894.424
889.954
892.14
894.088
894.081
895.854
897.785
891.968
893.803
895.771
890.794
892.707
894.707
889.962
891.869
893.804
889.409
891.707
893.829
892.319
894.24
896.427
890.326
892.281
894.472
889.224
891.293
893.547
888.739
890.914
893.186
888.874
891.282
893.614
885.038
885.846
887.932
891.759
885.386
886.252
888.408
892.27
884.889
885.729
887.823
891.687
885.115
886.036
888.214
892.088
884.691
885.58
887.588
891.338
884.613
885.606
887.747
891.578
884.683
885.785
888.078
892.003
884.472
885.7
888.085
892.036
884.233
885.291
887.386
891.181
884.3
885.435
887.356
890.772
884.556
885.51
887.405
890.928
884.661
885.687
887.473
890.692
883.974
885.136
887.393
891.328
883.987
885.218
887.251
890.748
883.709
884.973
887.308
891.223
883.715
885.03
887.122
890.605
885.096
885.818
887.718
891.32
885.578
886.194
887.818
890.968
885.053
885.8
887.674
891.255
885.557
886.202
887.817
890.939
884.993
885.787
887.602
891.079
885.456
886.166
887.786
890.871
884.976
885.832
887.559
890.833
885.36
886.144
887.745
890.745
885.024
885.949
887.6
890.6
886.327
886.849
888.315
890.572
887.171
887.634
889.136
891.261
886.234
886.798
888.276
890.529
887.073
887.586
889.108
891.241
886.064
886.71
888.224
890.492
886.902
887.506
889.066
891.204
885.818
886.576
888.124
890.405
886.671
887.388
888.996
891.152
885.502
886.402
888.005
890.309
886.401
887.254
888.922
891.103
884.901
886.065
887.845
890.236
885.712
886.861
888.678
890.938
885.196
886.235
887.929
890.279
886.054
887.058
888.801
891.017
884.639
885.909
887.767
890.201
885.399
886.676
888.567
890.85
884.388
885.747
887.659
890.113
885.114
886.497
888.45
890.757
897.6
902.329
906.38
909.703
912.296
897.901
902.579
906.619
909.94
912.531
897.567
902.312
906.369
909.695
912.289
897.85
902.545
906.593
909.917
912.51
897.502
902.283
906.35
909.68
912.275
897.634
902.357
906.417
909.747
912.342
897.756
902.486
906.551
909.884
912.48
897.689
902.436
906.513
909.853
912.453
897.461
902.261
906.336
909.671
912.267
897.711
902.62
906.712
910.048
912.644
897.516
902.347
906.424
909.757
912.352
897.787
902.701
906.79
910.123
912.718
897.46
902.263
906.345
909.683
912.282
897.743
902.663
906.76
910.099
912.697
897.389
902.215
906.309
909.654
912.256
897.728
902.67
906.777
910.122
912.722
897.636
902.443
906.506
909.829
912.421
897.995
902.876
906.943
910.265
912.854
897.629
902.452
906.519
909.845
912.437
897.987
902.877
906.948
910.271
912.86
897.638
902.491
906.565
909.894
912.487
897.993
902.899
906.975
910.3
912.891
897.746
902.648
906.731
910.062
912.655
898.055
902.975
907.056
910.384
912.974
897.96
902.88
906.965
910.295
912.888
917.704
918.486
917.357
918.155
916.725
917.611
915.925
916.961
915.131
916.327
913.884
915.267
914.522
915.873
913.256
914.589
912.603
913.816
926.272
935.749
943.814
950.188
954.649
926.14
935.684
943.841
950.257
954.791
926.116
935.667
943.762
950.15
954.615
926
935.625
943.79
950.244
954.768
925.802
935.49
943.646
950.063
954.541
925.697
935.456
943.679
950.161
954.697
925.378
935.238
943.476
949.936
954.432
925.31
935.225
943.525
950.046
954.599
924.886
934.919
943.255
949.769
954.289
924.892
934.954
943.336
949.902
954.474
923.824
934.133
942.665
949.299
953.869
923.937
934.252
942.81
949.477
954.086
924.356
934.536
942.974
949.55
954.097
924.441
934.633
943.103
949.719
954.309
923.291
933.719
942.34
949.032
953.628
923.367
933.809
942.46
949.187
953.821
922.746
933.289
942.001
948.753
953.378
922.745
933.334
942.075
948.869
953.544
887.638
888.805
889.837
888.5
890.298
890.111
890.046
889.793
890.428
890.083
892
891.596
892.843
892.384
891.662
891.278
891.205
890.939
891.122
890.916
888.544
888.251
891.804
893.234
893.701
893.83
892.516
891.831
893.479
891.56
894.916
897.085
891.955
892.555
894.232
892.411
893.15
893.294
890.47
890.364
891.279
890.962
890.539
890.197
890.597
891.125
892.989
892.635
891.947
891.598
889.104
888.667
889.434
889.083
889.619
889.737
890.717
891.96
890.691
886.397
885.309
884.857
884.933
885.552
886.655
885.748
885.36
885.53
886.324
890.718
890.216
890.172
890.613
891.563
892.185
891.725
891.722
892.195
893.16
892.638
892.159
892.135
892.591
893.545
892.783
892.324
892.321
892.794
893.757
891.442
890.952
890.919
891.368
892.321
889.479
888.068
887.335
887.203
887.651
890.972
889.447
888.67
888.532
889.052
889.885
888.82
888.265
888.315
889.048
892.593
891.126
890.408
890.338
890.977
894.813
893.306
892.575
892.499
893.14
890.625
889.858
889.56
889.807
890.651
891.009
890.043
889.574
889.693
890.469
892.731
891.8
891.358
891.498
892.285
891.17
890.492
890.275
890.582
891.458
891.832
891.075
890.785
891.037
891.883
892.075
891.419
891.222
891.542
892.424
888.32
887.12
886.523
886.483
887.02
888.884
887.99
887.579
887.733
888.523
890.016
889.318
889.083
889.375
890.245
889.755
889.118
888.941
889.279
890.173
889.238
888.506
888.24
888.508
889.364
888.968
888.31
888.114
888.436
889.323
889.45
888.881
888.772
889.162
890.085
889.985
889.421
889.315
889.708
890.632
891.859
891.302
891.201
891.596
892.518
891.535
891.016
890.952
891.377
892.317
890.762
890.146
889.987
890.339
891.24
890.45
889.875
889.757
890.141
891.06
887.02
885.903
885.409
885.452
886.035
887.17
886.311
885.952
886.146
886.956
887.705
886.71
886.232
886.308
886.978
887.747
886.996
886.719
886.977
887.828
888.354
887.663
887.438
887.737
888.611
888.289
887.43
887.047
887.22
888.021
889.56
888.979
888.856
889.236
890.154
890.857
890.334
890.268
890.692
891.632
889.501
888.884
888.725
889.078
889.98
888.36
889.019
888.41
889.139
886.802
887.563
886.775
887.451
888.466
888.548
889.163
889.015
886.819
886.857
887.517
887.304
890.01
891.632
890.602
892.161
890.015
891.484
890.71
892.151
890.731
890.119
890.38
889.98
891.26
891.876
890.019
890.743
889.682
890.483
888.426
889.19
887.961
888.706
891.56
892.341
891.077
891.977
892.741
893.688
893.126
894.43
893.585
894.827
893.017
894.567
893.609
894.983
892.744
894.846
893.144
895.011
893.944
895.856
895.039
896.991
889.055
889.472
889.38
889.856
887.002
887.14
887.349
887.47
891.337
892.536
891.046
892.134
889.906
890.322
890.584
890.902
887.859
887.896
888.483
888.416
891.873
893.023
892.614
893.656
893.381
895.707
895.328
897.964
893.188
895.694
894.984
897.764
893.899
896.125
895.802
898.365
894.688
896.885
896.465
898.983
893.234
893.996
894.685
895.89
893.112
893.739
894.898
896.054
892.888
893.225
895.281
896.236
888.977
886.858
891.063
893.309
896.185
886.791
888.806
890.89
893.256
896.686
886.969
889.249
891.887
894.782
897.79
895.241
895.808
899.069
900.198
894.66
895.229
898.838
899.966
893.798
894.269
898.558
899.694
886.838
887.15
888.99
889.362
891.248
891.626
893.982
894.466
898.917
900.134
886.982
887.305
889.493
890.253
892.364
893.329
895.708
896.867
900.244
901.723
890.085
891.395
890.426
891.767
887.223
887.357
887.512
887.57
893.67
895.598
893.247
895.074
890.717
892.255
891.291
892.933
887.858
887.999
888.366
888.561
893.97
896.133
894.609
896.904
897.57
900.072
902.562
905.738
896.922
899.348
901.664
904.633
898.064
900.656
903.323
906.597
898.524
901.29
903.726
906.943
896.029
896.524
899.473
899.552
895.468
896.017
899.328
899.36
894.64
895.432
899.182
899.258
887.787
888.91
890.054
891.116
892.234
893.158
894.964
895.835
899.451
899.469
887.945
889.157
891.295
892.415
894.253
895.1
897.249
897.644
900.359
900.155
884.238
884.189
884.914
884.622
885.381
885.334
886.092
885.787
883.445
882.881
884.088
883.501
883.463
882.937
884.158
883.591
884.037
883.448
883.944
883.507
883.054
883.613
885.247
885.991
886.406
887.134
884.856
885.701
884.588
885.34
884.408
885.18
882.548
882.347
883.151
882.916
882.551
882.296
883.183
882.873
882.587
882.234
883.059
882.634
883.773
883.269
884.457
883.82
883.987
883.943
884.297
884.16
885.287
885.266
885.62
885.541
883.421
883.235
883.139
883.063
884.754
884.486
885.298
884.899
886.102
885.92
886.681
886.382
883.853
883.515
884.368
883.879
882.803
882.396
882.716
882.514
882.55
882.233
882.578
882.422
883.211
882.704
882.954
882.694
883.692
883.084
883.275
882.953
882.286
882.391
882.127
882.3
882.335
882.45
882.133
882.322
882.447
882.543
882.169
882.339
883.872
885.149
883.044
882.501
882.258
885.163
883.938
883.126
882.589
882.378
885.126
883.857
883.012
882.552
882.431
882.824
883.577
882.815
883.624
882.818
883.522
882.775
883.551
882.823
883.45
882.715
883.427
885.173
885.476
883.95
884.322
883.212
883.674
882.758
883.296
882.667
883.313
885.057
885.186
883.812
883.992
883.041
883.359
882.673
883.154
882.68
883.326
883.77
883.732
884.021
883.848
885.073
884.92
885.376
885.06
883.226
883.315
883.022
883.219
884.425
884.15
884.837
884.578
885.814
885.399
886.272
885.878
883.565
883.584
883.933
883.978
882.852
883.22
882.914
883.547
882.699
883.154
882.767
883.442
883.106
883.436
883.13
883.769
883.447
883.799
883.4
884.048
884.498
885.362
884.803
885.821
884.38
885.307
884.71
885.787
884.27
885.295
884.566
885.815
886.109
887.237
885.019
886.172
884.409
885.571
884.105
885.3
884.459
885.931
885.704
887.003
884.601
885.957
884.119
885.537
884.094
885.573
884.595
886.26
882.874
884.398
886.95
891.097
883.399
884.918
887.499
891.654
882.838
884.355
886.898
891.075
883.34
884.843
887.401
891.542
882.809
884.316
886.734
890.778
883.121
884.6
887.055
891.111
883.681
885.108
887.612
891.685
884.108
885.454
887.915
891.918
882.944
884.418
886.777
890.758
883.201
884.688
886.824
890.378
882.867
884.371
886.622
890.398
883.153
884.668
886.766
890.194
883.152
884.578
886.999
891.045
883.313
884.758
886.916
890.488
883.425
884.78
887.172
891.125
883.486
884.874
887.008
890.515
882.704
884.227
886.639
890.59
882.946
884.462
886.645
890.156
882.736
884.255
886.632
890.558
882.996
884.514
886.677
890.156
882.815
884.332
886.621
890.432
883.059
884.581
886.718
890.145
882.972
884.491
886.65
890.231
883.149
884.674
886.757
890.081
883.193
884.72
886.76
890.023
883.511
885.024
887.083
889.641
884.253
885.766
887.864
890.261
883.508
885.024
887.078
889.625
884.252
885.772
887.87
890.268
883.517
885.041
887.098
889.649
884.263
885.795
887.896
890.282
883.53
885.065
887.102
889.645
884.277
885.823
887.921
890.302
883.563
885.109
887.116
889.638
884.31
885.876
887.967
890.342
883.784
885.31
887.305
889.802
884.459
886.02
888.085
890.459
883.652
885.198
887.204
889.717
884.355
885.928
888.009
890.382
883.958
885.447
887.433
889.923
884.636
886.161
888.202
890.554
884.16
885.593
887.547
890.018
884.862
886.326
888.329
890.659
897.207
902.087
906.228
909.601
912.216
897.526
902.346
906.473
909.842
912.454
897.208
902.092
906.231
909.602
912.216
897.521
902.342
906.465
909.832
912.443
897.185
902.089
906.229
909.599
912.212
897.361
902.189
906.311
909.676
912.286
897.566
902.368
906.477
909.834
912.441
897.617
902.391
906.485
909.834
912.438
897.216
902.111
906.243
909.608
912.218
897.493
902.488
906.63
909.993
912.601
897.226
902.171
906.314
909.683
912.294
897.527
902.544
906.692
910.057
912.666
897.29
902.159
906.28
909.639
912.248
897.595
902.572
906.704
910.062
912.668
897.33
902.179
906.286
909.639
912.244
897.676
902.638
906.758
910.109
912.712
897.224
902.193
906.349
909.725
912.339
897.57
902.62
906.784
910.158
912.77
897.242
902.217
906.373
909.746
912.36
897.581
902.634
906.796
910.169
912.781
897.289
902.28
906.434
909.806
912.418
897.622
902.677
906.837
910.208
912.818
897.435
902.461
906.615
909.984
912.593
897.727
902.779
906.934
910.302
912.91
897.673
902.707
906.858
910.223
912.832
907.214
908.11
907.336
908.252
907.616
908.557
908.064
908.987
908.786
909.586
910.625
911.667
909.803
910.709
911.332
912.478
911.97
913.131
918.597
930.243
939.694
946.906
951.773
918.345
930.114
939.687
946.954
951.905
918.71
930.324
939.752
946.951
951.81
918.494
930.229
939.751
947.029
951.956
918.94
930.484
939.867
947.039
951.885
918.717
930.382
939.859
947.112
952.026
919.298
930.731
940.044
947.177
952.005
919.048
930.606
940.019
947.236
952.134
919.809
931.076
940.297
947.379
952.181
919.474
930.89
940.226
947.4
952.277
921.031
931.933
940.936
947.886
952.618
920.815
931.806
940.896
947.921
952.714
920.411
931.481
940.596
947.616
952.388
920.089
931.292
940.518
947.628
952.47
921.62
932.387
941.287
948.168
952.862
921.505
932.327
941.291
948.232
952.976
922.193
932.846
941.649
948.464
953.121
922.138
932.847
941.688
948.552
953.263
886.682
887.785
886.977
885.826
884.269
884.926
884.255
885.002
885.399
886.173
885.398
886.067
898.54
898.329
897.809
896.987
895.881
894.55
898.63
898.429
897.934
897.164
896.153
894.967
899.073
899.874
898.834
899.602
898.252
898.942
897.319
897.867
896.071
896.492
894.622
895.074
893.123
891.773
890.615
889.665
888.958
888.448
893.703
892.478
891.38
890.46
889.75
889.258
897.558
897.17
897.238
897.764
898.749
897.344
896.955
897.02
897.544
898.529
896.821
896.426
896.488
897.009
897.993
895.991
895.59
895.644
896.16
897.142
894.873
894.459
894.502
895.009
895.988
893.525
893.091
893.115
893.609
894.583
897.648
897.259
897.326
897.85
898.835
897.444
897.053
897.117
897.64
898.623
896.945
896.549
896.608
897.127
898.11
896.166
895.762
895.814
896.328
897.309
895.144
894.727
894.767
895.272
896.249
893.941
893.506
893.527
894.019
894.991
898.093
897.707
897.776
898.301
899.285
898.896
898.511
898.58
899.105
900.088
897.852
897.464
897.53
898.054
899.038
898.621
898.234
898.301
898.824
899.806
897.265
896.872
896.934
897.455
898.438
897.957
897.564
897.626
898.147
899.128
896.324
895.923
895.978
896.494
897.476
896.872
896.471
896.525
897.039
898.02
895.064
894.65
894.692
895.2
896.178
895.484
895.067
895.107
895.612
896.588
893.597
893.164
893.187
893.68
894.654
894.047
893.61
893.63
894.119
895.089
892.072
891.61
891.606
892.078
893.043
890.685
890.183
890.139
890.58
891.53
889.476
888.917
888.818
889.217
890.145
888.454
887.82
887.651
887.996
888.896
887.661
886.952
886.719
887.015
887.888
887.094
886.343
886.077
886.349
887.208
892.654
892.193
892.188
892.66
893.624
891.398
890.902
890.863
891.309
892.26
890.259
889.719
889.638
890.051
890.986
889.293
888.703
888.575
888.952
889.868
888.538
887.904
887.735
888.082
888.983
888.019
887.361
887.173
887.505
888.398
898.44
898.03
897.31
896.287
894.975
893.432
898.531
898.132
897.44
896.474
895.272
893.908
898.97
899.766
898.524
899.276
897.732
898.395
896.586
897.092
895.121
895.492
893.429
893.791
891.807
890.325
889.144
888.359
888.043
888.117
892.501
891.204
890.141
889.403
889.031
889.002
897.459
897.072
897.14
897.666
898.652
897.047
896.658
896.726
897.252
898.238
896.323
895.932
895.997
896.521
897.508
895.294
894.896
894.956
895.478
896.464
893.972
893.566
893.617
894.134
895.119
892.415
891.994
892.033
892.54
893.523
897.549
897.161
897.228
897.753
898.738
897.148
896.758
896.825
897.349
898.335
896.452
896.059
896.122
896.645
897.631
895.479
895.08
895.138
895.657
896.643
894.268
893.859
893.908
894.421
895.405
892.89
892.466
892.501
893.005
893.986
897.99
897.604
897.673
898.2
899.184
898.788
898.403
898.473
898.998
899.981
897.542
897.155
897.223
897.749
898.735
898.296
897.91
897.978
898.504
899.487
896.747
896.356
896.422
896.946
897.932
897.411
897.021
897.087
897.611
898.596
895.594
895.197
895.258
895.78
896.766
896.101
895.705
895.765
896.286
897.271
894.12
893.714
893.767
894.283
895.269
894.49
894.083
894.135
894.65
895.634
892.413
891.994
892.034
892.542
893.525
892.775
892.355
892.393
892.899
893.882
890.77
890.327
890.345
890.836
891.813
889.257
888.782
888.768
889.235
890.202
888.032
887.508
887.447
887.879
888.828
887.179
886.585
886.458
886.839
887.761
886.772
886.097
885.899
886.225
887.116
886.773
886.036
885.784
886.067
886.934
891.463
891.019
891.033
891.522
892.497
890.138
889.664
889.649
890.116
891.081
889.039
888.524
888.471
888.908
889.858
888.254
887.69
887.59
887.991
888.923
887.834
887.22
887.073
887.438
888.35
887.769
887.119
886.939
887.278
888.176
887.964
887.8
890.14
891.805
891.918
892.301
890.774
887.01
887.493
887.239
888.615
888.463
888.225
889.296
889.507
890.144
886.902
887.052
888.262
888.377
887.654
887.856
888.764
888.993
890.504
890.505
889.247
889.237
887.406
887.427
886.89
887.352
887.532
887.024
888.649
889.988
888.35
885.854
884.819
884.405
884.513
885.163
886.225
885.345
884.981
885.172
885.98
889.078
888.61
888.603
889.077
890.047
890.772
890.334
890.356
890.851
891.83
890.878
890.432
890.446
890.935
891.91
891.271
890.837
890.862
891.359
892.338
889.725
889.269
889.275
889.757
890.732
885.153
884.219
883.855
884.011
884.663
885.691
884.797
884.475
884.671
885.381
885.864
885.112
884.848
885.123
885.984
886.998
886.199
885.945
886.206
887.025
887.293
886.71
886.595
886.985
887.912
886.959
886.295
886.108
886.444
887.341
888.172
887.634
887.559
887.98
888.923
888.361
887.8
887.703
888.107
889.04
889.036
888.514
888.454
888.885
889.832
885.075
884.161
883.812
883.978
884.654
885.744
885.043
884.821
885.127
886.008
887.111
886.547
886.449
886.853
887.787
887.249
886.708
886.632
887.053
887.997
886.464
885.863
885.732
886.109
887.03
886.697
886.127
886.022
886.421
887.353
887.655
887.136
887.08
887.517
888.468
887.9
887.397
887.357
887.806
888.764
889.429
888.945
888.92
889.379
890.341
889.444
888.975
888.967
889.439
890.408
888.142
887.626
887.572
888.009
888.961
888.146
887.645
887.606
888.055
889.013
885.431
884.461
884.078
884.215
884.884
885.983
885.188
884.893
885.14
885.984
885.315
884.488
884.166
884.374
885.131
886.076
885.399
885.198
885.52
886.41
886.332
885.722
885.581
885.951
886.867
885.704
884.99
884.754
885.048
885.921
887.539
887.02
886.963
887.399
888.351
888.921
888.446
888.433
888.902
889.87
887.224
886.686
886.613
887.036
887.981
888.917
887.999
887.623
887.756
888.355
889.541
888.145
888.22
886.558
886.526
888.296
888.435
886.607
886.684
889.865
891.668
889.878
891.5
890.045
889.958
891.203
888.099
888.183
886.494
886.452
888.269
888.409
886.559
886.666
889.96
891.866
889.969
891.652
890.127
889.997
891.336
888.125
888.217
886.483
886.428
888.312
888.46
886.566
886.679
890.051
892.362
890.063
892.082
890.224
890.085
891.7
888.461
888.553
886.783
886.723
888.658
888.835
886.871
887.005
890.514
892.958
890.507
892.659
890.647
890.488
892.202
889.058
889.145
887.385
887.325
889.25
889.461
887.472
887.605
891.123
893.411
891.106
893.173
891.222
891.105
892.729
890.127
890.207
888.484
888.426
890.292
890.468
888.568
888.686
892.078
894.186
892.043
893.963
892.138
892.011
893.514
884.017
884.006
885.143
885.139
884.032
884.054
885.168
885.21
883.207
882.599
883.244
882.691
883.256
883.361
882.875
883.937
883.942
885.073
885.056
883.99
884.039
885.118
885.17
883.093
882.597
883.155
882.713
883.212
883.354
882.91
883.904
883.929
885.05
885.017
884.005
884.079
885.119
885.2
883.152
882.835
883.231
882.939
883.33
883.478
883.122
884.202
884.24
885.344
885.302
884.335
884.44
885.426
885.512
883.526
883.38
883.618
883.476
883.756
883.934
883.649
884.831
884.875
885.958
885.913
884.994
885.139
886.042
886.138
884.225
884.175
884.326
884.252
884.483
884.681
884.396
885.98
886.025
887.082
887.037
886.144
886.27
887.167
887.258
885.384
885.215
885.48
885.299
885.611
885.779
885.448
897.778
897.484
896.907
896.431
895.671
895.189
893.969
893.577
894.321
893.862
895.659
895.196
896.64
896.202
897.435
897.119
895.276
894.647
894.455
893.591
893.208
892.405
892.453
891.438
898.836
900.596
898.521
900.167
898.021
899.714
897.505
899.106
896.241
897.186
895.364
896.559
898.656
897.65
893.44
891.941
892.6
891.488
891.557
890.294
890.564
889.611
895.22
893.659
894.308
893.13
896.646
895.132
902.628
903.851
901.801
903.075
901.736
903.273
900.746
902.16
900.471
902.546
898.941
900.867
897.759
899.665
896.412
898.348
894.788
894.507
893.485
893.346
892.045
891.69
891.01
890.655
895.88
896.231
897.414
897.469
892.386
892.386
891.394
891.591
890.078
889.788
889.205
889.05
894.628
895.209
893.521
894.384
898.239
900.56
899.112
901.723
899.895
902.275
900.408
903.123
896.877
899.132
898.05
900.608
895.674
897.895
897.215
899.732
905.528
908.198
905.961
908.606
904.688
907.17
905.498
908.021
903.325
905.231
904.746
906.822
896.635
893.388
899.593
901.823
904.262
893.855
897.29
900.819
903.201
905.835
892.995
896.051
899.021
901.846
904.634
910.668
911.885
911.998
913.074
909.377
910.775
911.129
912.293
907.2
908.768
909.677
911.065
894.615
895.877
898.373
900.093
901.845
903.632
904.618
906.388
908.318
910.093
893.554
894.571
896.981
898.766
900.208
902.245
903.435
905.639
907.528
909.856
895.378
897.384
893.945
895.724
892.016
892.597
890.736
891.066
897.366
899.735
898.768
901.285
892.733
894.517
891.953
893.658
889.71
890.025
888.977
889.216
896.094
898.508
895.306
897.665
901.279
904.156
906.152
909.647
902.411
905.43
906.907
910.338
900.239
903.025
905.43
908.869
899.26
902.073
904.398
907.654
912.27
912.829
913.872
912.491
912.735
913.69
911.43
912.121
913.229
911.862
912.161
913.191
909.773
910.676
911.91
910.938
911.383
912.537
897.433
899.219
901.139
901.936
903.509
905.216
905.342
906.706
908.221
907.784
908.935
910.388
910.214
910.825
912.177
896.009
898.01
900.181
901.159
903.261
905.422
904.68
906.545
908.493
907.535
908.948
910.678
910.196
910.986
912.544
889.543
888.897
888.979
888.151
891.195
890.396
890.546
889.561
889.261
887.968
889.114
887.912
888.856
887.704
888.58
887.503
887.675
888.213
887.321
887.955
887.453
887.011
887.516
886.78
888.788
887.966
887.31
886.607
886.806
886.14
886.751
886.065
886.657
885.505
886.888
885.81
886.467
885.289
886.523
885.44
886.297
885.017
885.997
884.836
885.772
884.758
885.189
884.362
888.047
887.485
887.318
886.692
889.776
889.287
888.92
888.391
886.205
885.463
886.842
886.158
886.611
886.01
885.909
885.411
888.115
887.625
887.338
886.955
885.585
884.862
884.945
884.333
885.275
884.283
884.662
884.085
885.786
884.715
885.267
884.59
884.772
883.901
884.135
883.651
884.217
883.493
883.674
883.277
886.703
887.266
885.619
886.204
886.67
887.269
885.53
886.14
886.631
887.171
885.394
885.941
888.584
890.638
887.305
886.295
885.226
891.065
889.032
887.84
886.846
885.709
890.24
888.239
886.813
885.857
885.093
888.244
889.598
887.192
888.505
888.156
889.445
887.03
888.287
887.945
889.163
886.717
887.888
891.619
892.665
889.463
890.524
888.24
889.327
887.303
888.409
886.232
887.335
890.579
891.194
888.529
889.146
887.144
887.876
886.26
887.157
885.596
886.706
887.358
887.575
886.546
886.539
889.221
889.377
888.245
888.114
885.461
885.737
886.159
886.621
885.926
885.749
885.336
885.102
887.492
887.198
886.827
886.464
884.905
885.03
884.379
884.454
884.804
885.378
884.523
885.421
885.439
886.176
885.018
886.038
884.288
884.723
884.1
884.885
883.856
884.238
883.722
884.408
891.442
893.281
895.025
890.767
892.844
894.594
891.174
893.035
894.819
890.457
892.544
894.369
890.786
892.611
894.424
889.955
892.14
894.088
894.082
895.855
897.785
891.969
893.804
895.772
890.794
892.708
894.708
889.963
891.87
893.804
889.41
891.708
893.83
892.32
894.241
896.428
890.327
892.282
894.473
889.225
891.294
893.547
888.74
890.915
893.187
888.875
891.283
893.615
885.046
885.853
887.94
891.769
885.403
886.266
888.422
892.285
884.889
885.73
887.823
891.687
885.114
886.036
888.213
892.087
884.692
885.58
887.588
891.338
884.613
885.606
887.747
891.577
884.683
885.785
888.078
892.002
884.472
885.7
888.085
892.036
884.233
885.291
887.386
891.181
884.3
885.435
887.356
890.772
884.557
885.51
887.405
890.928
884.662
885.687
887.473
890.692
883.974
885.136
887.393
891.328
883.987
885.218
887.251
890.748
883.709
884.973
887.308
891.223
883.715
885.03
887.122
890.605
885.099
885.82
887.72
891.326
885.579
886.193
887.818
890.971
885.054
885.8
887.674
891.254
885.558
886.202
887.817
890.938
884.994
885.787
887.602
891.079
885.456
886.167
887.787
890.871
884.977
885.833
887.56
890.833
885.361
886.144
887.746
890.745
885.025
885.949
887.6
890.6
886.325
886.845
888.312
890.572
887.168
887.63
889.131
891.256
886.234
886.799
888.277
890.529
887.074
887.587
889.108
891.241
886.064
886.711
888.224
890.492
886.903
887.506
889.066
891.204
885.819
886.577
888.124
890.405
886.672
887.389
888.997
891.152
885.502
886.402
888.005
890.31
886.401
887.254
888.923
891.103
884.902
886.065
887.845
890.236
885.713
886.861
888.679
890.938
885.196
886.235
887.929
890.279
886.055
887.059
888.801
891.018
884.639
885.909
887.767
890.201
885.4
886.676
888.567
890.85
884.388
885.747
887.659
890.113
885.115
886.497
888.45
890.757
897.603
902.33
906.38
909.704
912.296
897.91
902.586
906.625
909.946
912.537
897.567
902.311
906.368
909.694
912.288
897.848
902.543
906.591
909.915
912.508
897.501
902.282
906.35
909.68
912.274
897.633
902.356
906.416
909.745
912.341
897.755
902.485
906.55
909.883
912.479
897.688
902.435
906.512
909.852
912.452
897.461
902.26
906.336
909.67
912.267
897.711
902.62
906.712
910.047
912.643
897.516
902.347
906.424
909.756
912.351
897.787
902.701
906.79
910.123
912.717
897.459
902.262
906.344
909.682
912.281
897.743
902.662
906.76
910.099
912.696
897.389
902.214
906.308
909.653
912.255
897.728
902.669
906.777
910.121
912.721
897.635
902.44
906.502
909.826
912.417
897.991
902.87
906.938
910.259
912.848
897.63
902.452
906.519
909.845
912.437
897.988
902.877
906.948
910.271
912.86
897.638
902.49
906.565
909.894
912.487
897.993
902.899
906.975
910.3
912.89
897.746
902.647
906.731
910.061
912.654
898.055
902.975
907.056
910.383
912.974
897.96
902.879
906.965
910.295
912.888
917.722
918.5
917.358
918.157
916.727
917.612
915.926
916.962
915.133
916.329
913.886
915.268
914.523
915.874
913.257
914.59
912.604
913.817
926.282
935.755
943.819
950.192
954.652
926.146
935.686
943.841
950.257
954.791
926.117
935.667
943.762
950.15
954.616
926.002
935.626
943.791
950.245
954.769
925.803
935.491
943.647
950.064
954.541
925.698
935.457
943.68
950.162
954.698
925.379
935.239
943.477
949.937
954.432
925.311
935.226
943.525
950.047
954.6
924.887
934.92
943.256
949.77
954.289
924.893
934.955
943.337
949.903
954.475
923.825
934.134
942.666
949.3
953.87
923.938
934.253
942.811