/*--------------------------------*- C++ -*----------------------------------*\
  =========                 |
  \\      /  F ield         | OpenFOAM: The Open Source CFD Toolbox
   \\    /   O peration     | Website:  https://openfoam.org
    \\  /    A nd           | Version:  12
     \\/     M anipulation  |
\*---------------------------------------------------------------------------*/
FoamFile
{
    format      ascii;
    class       volScalarField;
    location    "305";
    object      T;
}
// * * * * * * * * * * * * * * * * * * * * * * * * * * * * * * * * * * * * * //

dimensions      [];

internalField   nonuniform List<scalar> 
4480
(
2.34568e-08
2.4016e-06
0.00130995
0.0230795
0.0859948
0.17398
0.266927
0.353546
0.429415
0.493766
0.547441
0.591829
0.628377
0.658402
0.683021
0.703155
0.719553
0.73282
0.743439
0.751797
0.758214
0.762939
0.766179
0.768097
0.76883
0.768489
0.767165
0.765307
0.763426
0.761511
0.759555
0.757546
0.755472
0.753324
0.751091
0.748764
0.746329
0.743778
0.741093
0.738266
0.735285
0.732131
0.72879
0.725251
0.721494
0.717501
0.713254
0.708741
0.703934
0.698812
0.693362
0.687562
0.68138
0.6748
0.667795
0.660339
0.652413
0.64399
0.635036
0.625532
0.615441
0.60474
0.593392
0.581368
0.568623
0.555126
0.540818
0.525657
0.509566
0.492489
0.474339
0.455044
0.43453
0.412744
0.389665
0.365323
0.339813
0.31331
0.286071
0.258431
0.230792
0.203596
0.177296
0.152454
0.129462
0.108599
0.0900429
0.0738631
0.06003
0.0484281
0.0388759
0.0311488
0.0250005
0.0201822
0.0164579
0.0136144
0.0114675
0.00986404
0.00868169
0.00782591
0.00722667
0.00683467
0.00661765
0.00655785
0.00664945
0.00689782
0.00731941
0.00794264
0.00881026
0.00998303
0.0115448
0.0136094
0.01633
0.0199103
0.0246175
0.0307973
0.0388868
0.049427
0.0630747
0.0806625
0.10346
0.13375
0.175403
0.23688
0.348513
0.540553
0.702971
0.85106
0.823152
0.601258
0.431412
0.250225
0.136368
0.0740524
0.0374753
0.0168859
0.00635606
0.0017646
0.000283031
1.35268e-05
1.17938e-08
0.000130924
0.0148309
0.105548
0.251067
0.397198
0.519875
0.615395
0.687576
0.74171
0.782468
0.813449
0.837278
0.855819
0.870378
0.8819
0.891053
0.898324
0.904075
0.908579
0.912043
0.914621
0.916437
0.917585
0.918141
0.918161
0.917692
0.916602
0.914831
0.912445
0.909506
0.906075
0.902213
0.897974
0.893405
0.888557
0.883469
0.878179
0.872713
0.867101
0.861365
0.855521
0.849578
0.843549
0.83744
0.831247
0.824973
0.818612
0.812157
0.8056
0.798929
0.792138
0.785207
0.778122
0.770872
0.763436
0.755804
0.747954
0.739871
0.731541
0.722939
0.714059
0.704873
0.69537
0.685532
0.675343
0.664777
0.653813
0.642436
0.630619
0.618331
0.605544
0.592226
0.578344
0.563854
0.548727
0.532925
0.516411
0.499166
0.481161
0.462383
0.442839
0.422532
0.401556
0.380016
0.358019
0.335706
0.31325
0.290845
0.268709
0.247068
0.226149
0.206172
0.187336
0.169812
0.153733
0.139197
0.126258
0.114936
0.105216
0.0970593
0.090409
0.0852022
0.0813772
0.078886
0.0776983
0.0778142
0.0792669
0.0821345
0.0865421
0.0926711
0.100763
0.111128
0.124145
0.140265
0.160008
0.183957
0.212755
0.247114
0.287882
0.336195
0.393638
0.462119
0.543507
0.638417
0.739898
0.830923
0.897858
0.867634
0.712077
0.557513
0.409246
0.280918
0.179143
0.104104
0.0534453
0.022985
0.00749656
0.00151434
0.000115239
3.07134e-06
0.00194124
0.0660826
0.246403
0.440036
0.59263
0.699919
0.77265
0.821972
0.85609
0.880399
0.898299
0.911874
0.922422
0.930759
0.937422
0.942774
0.947075
0.950516
0.953241
0.955366
0.956974
0.958139
0.958917
0.959349
0.959469
0.959306
0.958813
0.957945
0.956713
0.95513
0.953197
0.950922
0.948308
0.945367
0.942105
0.938539
0.934683
0.930554
0.926169
0.921549
0.916711
0.911677
0.90646
0.901078
0.895551
0.889884
0.884094
0.878186
0.872171
0.866055
0.859839
0.853524
0.84711
0.840602
0.833988
0.827274
0.82045
0.813511
0.806455
0.799272
0.791961
0.784508
0.776915
0.769169
0.761264
0.753195
0.744952
0.736525
0.727912
0.719092
0.710066
0.700815
0.691332
0.681594
0.671597
0.661322
0.650746
0.639857
0.628638
0.61706
0.605111
0.592761
0.579993
0.566799
0.553173
0.539107
0.524598
0.509655
0.49431
0.478599
0.462582
0.446342
0.429974
0.413605
0.397377
0.381451
0.366003
0.351223
0.337308
0.324453
0.312858
0.302721
0.294226
0.28756
0.282902
0.280424
0.280307
0.282738
0.287906
0.296021
0.307302
0.321981
0.340293
0.362468
0.38871
0.419194
0.454032
0.493274
0.5369
0.584799
0.636669
0.691783
0.74864
0.804672
0.855948
0.897385
0.92299
0.900163
0.794971
0.675484
0.546469
0.415541
0.292607
0.18705
0.105369
0.0498394
0.0181237
0.00425035
0.00041201
8.02924e-05
0.0129146
0.172907
0.418328
0.612224
0.736923
0.812598
0.858824
0.888248
0.908156
0.922545
0.933552
0.942308
0.94942
0.955247
0.960026
0.963936
0.967111
0.969667
0.971698
0.973287
0.974498
0.975386
0.975999
0.97637
0.976525
0.976486
0.976239
0.975767
0.975076
0.974169
0.973042
0.971692
0.970114
0.968299
0.966246
0.963951
0.961409
0.958624
0.955595
0.952331
0.948837
0.94512
0.941195
0.93707
0.93276
0.928275
0.923632
0.918839
0.913913
0.908862
0.903696
0.898428
0.893061
0.887608
0.882074
0.876463
0.870777
0.865025
0.859204
0.853321
0.847371
0.841362
0.835291
0.829155
0.822956
0.816696
0.810366
0.803971
0.797502
0.79096
0.784343
0.777644
0.770861
0.763988
0.757019
0.749952
0.742784
0.735502
0.728101
0.720578
0.712928
0.705146
0.697198
0.689099
0.680843
0.672421
0.663833
0.655075
0.646147
0.637056
0.627813
0.61844
0.608961
0.599421
0.589864
0.580365
0.571
0.561873
0.553104
0.544833
0.537214
0.530425
0.524655
0.520115
0.517014
0.51558
0.516035
0.518602
0.523492
0.530903
0.541005
0.553938
0.569796
0.588614
0.610363
0.634942
0.662157
0.691724
0.72325
0.756222
0.789946
0.823489
0.855613
0.884768
0.909081
0.926255
0.933195
0.916721
0.847113
0.759598
0.6548
0.534101
0.404748
0.278644
0.168879
0.0859164
0.0336972
0.00863094
0.000950512
0.000829671
0.0497849
0.325609
0.586631
0.744456
0.829603
0.875876
0.902772
0.920083
0.932575
0.942462
0.950701
0.957672
0.963545
0.968436
0.972454
0.975714
0.978325
0.980386
0.981989
0.983217
0.984134
0.984799
0.985254
0.985536
0.98567
0.985674
0.985543
0.985257
0.98482
0.984235
0.983501
0.982617
0.981577
0.980377
0.979009
0.977466
0.975745
0.973835
0.971738
0.969446
0.966962
0.964283
0.961416
0.958361
0.955128
0.951724
0.948156
0.944436
0.940573
0.936579
0.932464
0.92824
0.923916
0.919506
0.915018
0.910461
0.90584
0.901169
0.896451
0.891693
0.886901
0.882082
0.877239
0.87237
0.867487
0.862586
0.857669
0.852742
0.8478
0.842846
0.837876
0.832896
0.827899
0.822888
0.817858
0.812812
0.807743
0.802648
0.797535
0.792394
0.787227
0.782037
0.7768
0.77153
0.76623
0.760897
0.755536
0.750154
0.744757
0.739354
0.733956
0.728583
0.723251
0.717987
0.712822
0.707796
0.702957
0.698358
0.69407
0.690165
0.686735
0.683883
0.681722
0.680373
0.679974
0.680662
0.682579
0.685866
0.69066
0.69707
0.705197
0.715102
0.72681
0.740298
0.755483
0.772231
0.790336
0.809526
0.829448
0.849668
0.869657
0.888759
0.906184
0.920984
0.932018
0.937806
0.93623
0.922492
0.876167
0.812195
0.731292
0.628789
0.505564
0.370512
0.239079
0.129288
0.0537378
0.014562
0.00171512
0.00477782
0.130512
0.495748
0.723249
0.831206
0.882119
0.908597
0.924602
0.936041
0.945443
0.953759
0.961149
0.967547
0.972926
0.97732
0.980833
0.983584
0.985695
0.987286
0.988456
0.989296
0.989882
0.990277
0.990527
0.990669
0.99073
0.990724
0.990654
0.990477
0.990198
0.989817
0.989332
0.988741
0.988041
0.987225
0.986288
0.985226
0.984028
0.982692
0.981212
0.979582
0.977797
0.975856
0.973759
0.971504
0.969094
0.966532
0.963822
0.960975
0.957992
0.954885
0.951663
0.948336
0.944912
0.941403
0.93782
0.934172
0.930468
0.926716
0.922928
0.919115
0.915276
0.911425
0.907563
0.903699
0.899839
0.895981
0.892134
0.888302
0.88448
0.880675
0.876885
0.873114
0.869361
0.865623
0.861903
0.858197
0.85451
0.850839
0.847181
0.843538
0.839914
0.836307
0.832706
0.829109
0.825529
0.821968
0.81843
0.81492
0.811448
0.808025
0.804663
0.801375
0.798178
0.795095
0.792151
0.789373
0.786797
0.784456
0.782394
0.780665
0.779317
0.778416
0.778028
0.77822
0.779071
0.780655
0.783054
0.786339
0.790576
0.795827
0.802126
0.809494
0.817924
0.82738
0.837779
0.849011
0.860913
0.873277
0.88584
0.89828
0.91021
0.921158
0.930563
0.937747
0.94186
0.941791
0.935979
0.922197
0.890804
0.842126
0.78028
0.697547
0.588276
0.454917
0.310293
0.177138
0.0773219
0.0218389
0.00267782
0.0183915
0.259023
0.651513
0.816364
0.880569
0.909327
0.925179
0.936091
0.945161
0.953602
0.961615
0.968857
0.975019
0.98002
0.983937
0.986918
0.989115
0.990676
0.991732
0.992401
0.992786
0.992972
0.993029
0.993016
0.992968
0.992912
0.992859
0.992815
0.992716
0.992562
0.99235
0.992073
0.991726
0.991303
0.990798
0.9902
0.989506
0.988708
0.9878
0.986778
0.985635
0.984366
0.982972
0.981446
0.979791
0.978002
0.976083
0.974036
0.971868
0.96958
0.96718
0.964676
0.962074
0.959383
0.956614
0.953776
0.950874
0.947924
0.944933
0.941908
0.93886
0.935794
0.932721
0.929644
0.926576
0.923516
0.920469
0.917443
0.914437
0.911458
0.908505
0.905582
0.902685
0.899822
0.89699
0.894187
0.891414
0.888672
0.885963
0.883286
0.880636
0.878021
0.875443
0.872879
0.870344
0.86784
0.865367
0.862932
0.860541
0.858201
0.855918
0.853704
0.851575
0.849536
0.847612
0.845814
0.84417
0.8427
0.841431
0.840395
0.839621
0.839152
0.839022
0.839273
0.83995
0.841096
0.842757
0.844975
0.847787
0.851232
0.855327
0.860091
0.86552
0.871596
0.878273
0.885482
0.893128
0.901085
0.909184
0.917221
0.924942
0.932043
0.938156
0.942843
0.945559
0.945632
0.942184
0.934034
0.91965
0.896175
0.857963
0.809164
0.743286
0.650521
0.526367
0.377131
0.226163
0.103189
0.0302028
0.0038247
0.0532531
0.418395
0.768936
0.87001
0.905982
0.923271
0.934223
0.943011
0.951304
0.959689
0.967894
0.975156
0.981063
0.985605
0.988957
0.991329
0.992906
0.993847
0.994297
0.994384
0.994229
0.993931
0.99358
0.993235
0.992942
0.992726
0.992599
0.992557
0.992523
0.992486
0.992437
0.992365
0.99226
0.992108
0.991899
0.991623
0.991269
0.990831
0.990303
0.989673
0.988942
0.988102
0.98715
0.986086
0.984905
0.983612
0.982204
0.980682
0.979051
0.977317
0.97548
0.973548
0.971529
0.96943
0.967257
0.96502
0.962727
0.960388
0.95801
0.955603
0.953175
0.95073
0.948282
0.945833
0.943388
0.940959
0.938545
0.936155
0.933786
0.931445
0.929136
0.92686
0.924614
0.922406
0.920228
0.918087
0.915982
0.91391
0.911877
0.909877
0.907911
0.905986
0.904094
0.902236
0.900402
0.898601
0.896835
0.895106
0.893421
0.891788
0.890205
0.888688
0.887246
0.885881
0.884612
0.883454
0.882419
0.881526
0.880792
0.880243
0.879895
0.879781
0.879916
0.880338
0.881071
0.882139
0.883574
0.885395
0.88763
0.890288
0.893385
0.896914
0.900865
0.905215
0.90992
0.914915
0.920119
0.92542
0.930678
0.935727
0.940348
0.944298
0.947266
0.948892
0.948722
0.946201
0.940617
0.931068
0.916453
0.895588
0.865685
0.825016
0.771391
0.693721
0.582375
0.43551
0.273176
0.129941
0.0393836
0.00515965
0.126241
0.576723
0.839612
0.897072
0.919022
0.931091
0.939848
0.947774
0.955965
0.964684
0.973252
0.980497
0.986015
0.989978
0.992685
0.994395
0.995296
0.995546
0.995297
0.994698
0.993892
0.993008
0.992148
0.991392
0.990792
0.990376
0.99015
0.990102
0.990127
0.990214
0.990344
0.990498
0.990654
0.990798
0.99091
0.990973
0.990975
0.990903
0.990746
0.990502
0.990158
0.989716
0.989167
0.988512
0.987749
0.986879
0.985901
0.98482
0.983638
0.982358
0.980985
0.979523
0.977981
0.976365
0.974678
0.972934
0.971134
0.969292
0.967412
0.965504
0.963577
0.961636
0.959686
0.957737
0.955795
0.953863
0.951948
0.950052
0.948179
0.946335
0.944519
0.942733
0.940979
0.939255
0.937568
0.935914
0.934295
0.932711
0.931159
0.929644
0.928159
0.926714
0.925303
0.923928
0.922571
0.921247
0.919956
0.918698
0.91748
0.916301
0.915173
0.914094
0.913079
0.912128
0.911255
0.910469
0.909781
0.9092
0.908747
0.908429
0.908271
0.90828
0.908479
0.908885
0.909518
0.910391
0.911526
0.91293
0.914618
0.916593
0.918861
0.921407
0.924218
0.927266
0.930507
0.933883
0.937322
0.940721
0.943961
0.946892
0.949333
0.951071
0.95184
0.951328
0.949155
0.94485
0.937829
0.927377
0.912671
0.892856
0.867143
0.833002
0.787386
0.721466
0.623174
0.483177
0.315628
0.156264
0.049135
0.0067017
0.249298
0.704624
0.871559
0.910575
0.926493
0.936065
0.943725
0.951333
0.959723
0.968966
0.977952
0.985045
0.990018
0.99331
0.99534
0.996358
0.996525
0.995985
0.994909
0.993477
0.99187
0.990255
0.988766
0.987503
0.986528
0.985868
0.985527
0.985463
0.985561
0.985795
0.986138
0.986559
0.987026
0.987512
0.98799
0.988439
0.988835
0.989165
0.989414
0.989573
0.989635
0.989592
0.989441
0.989181
0.988814
0.98834
0.987756
0.98707
0.986283
0.985401
0.984425
0.983365
0.982227
0.981013
0.979736
0.978401
0.977012
0.975581
0.974113
0.972614
0.971096
0.969563
0.968021
0.966476
0.964936
0.963403
0.961884
0.960383
0.958899
0.957441
0.956003
0.954598
0.953218
0.95187
0.95055
0.949261
0.948004
0.946775
0.94558
0.944412
0.943278
0.942176
0.941102
0.940064
0.939042
0.93805
0.937084
0.936146
0.935238
0.934369
0.933536
0.932745
0.932002
0.931314
0.930684
0.930122
0.929632
0.929228
0.928918
0.928709
0.928618
0.92865
0.92882
0.929143
0.929624
0.930277
0.93111
0.932128
0.93334
0.934741
0.936327
0.938086
0.939998
0.942035
0.944153
0.946298
0.9484
0.95037
0.9521
0.953456
0.954281
0.954381
0.953529
0.951449
0.947816
0.942218
0.934174
0.923098
0.908347
0.889254
0.865149
0.835017
0.795582
0.737849
0.65074
0.519616
0.351878
0.181092
0.0592557
0.00848245
0.378875
0.785289
0.891995
0.918631
0.931295
0.939486
0.946535
0.954075
0.962822
0.972701
0.982098
0.988871
0.993166
0.995754
0.997109
0.997411
0.996756
0.995283
0.993189
0.99072
0.988113
0.985588
0.983322
0.981441
0.980014
0.979075
0.978612
0.978538
0.978734
0.979159
0.979772
0.980525
0.981373
0.982275
0.983194
0.984095
0.984951
0.985741
0.986449
0.987056
0.987557
0.987946
0.988215
0.988364
0.988395
0.988309
0.988109
0.987798
0.987381
0.986865
0.986253
0.985552
0.984772
0.983915
0.98299
0.982004
0.980966
0.979884
0.97876
0.977607
0.97643
0.975235
0.974028
0.972816
0.971603
0.970394
0.969195
0.968006
0.966836
0.96568
0.964549
0.963438
0.96235
0.961289
0.960249
0.95924
0.958254
0.957296
0.956363
0.955453
0.954572
0.95372
0.95289
0.95209
0.95131
0.950548
0.949806
0.94909
0.948401
0.947735
0.947104
0.946502
0.945936
0.945413
0.944931
0.944503
0.94413
0.943817
0.943571
0.943405
0.94332
0.943324
0.943424
0.943633
0.943948
0.944385
0.944939
0.945616
0.946416
0.947334
0.948359
0.949478
0.950665
0.951895
0.953125
0.9543
0.955358
0.956213
0.95677
0.956911
0.956489
0.955333
0.953239
0.949965
0.94522
0.93865
0.92984
0.918305
0.903514
0.884916
0.861912
0.833497
0.797117
0.746362
0.667751
0.545608
0.381227
0.203689
0.0696003
0.010545
0.509748
0.833013
0.905114
0.924998
0.934834
0.941895
0.948585
0.956185
0.965379
0.975957
0.985753
0.992023
0.995551
0.997461
0.998171
0.997707
0.996084
0.993453
0.990083
0.986305
0.98245
0.978807
0.975599
0.972982
0.971036
0.969788
0.969216
0.969153
0.969493
0.970179
0.971143
0.972321
0.973648
0.975064
0.976518
0.977966
0.97937
0.980701
0.981935
0.983054
0.984046
0.984908
0.985634
0.986219
0.986671
0.986987
0.987175
0.987238
0.987185
0.987021
0.986753
0.986389
0.985937
0.985403
0.984797
0.984125
0.983395
0.982615
0.981794
0.980936
0.98005
0.979142
0.978217
0.977281
0.976343
0.975401
0.974463
0.973532
0.972611
0.971704
0.970812
0.969937
0.969079
0.968241
0.967423
0.966626
0.965851
0.965094
0.964358
0.963645
0.962953
0.962283
0.961632
0.961005
0.960391
0.959796
0.959214
0.958652
0.958109
0.957584
0.957083
0.956606
0.956155
0.955731
0.955343
0.95499
0.954676
0.954406
0.954184
0.954013
0.953899
0.953848
0.953863
0.953945
0.9541
0.954329
0.95463
0.955007
0.955452
0.955958
0.956511
0.957096
0.95769
0.958259
0.958764
0.959157
0.959374
0.959342
0.958965
0.958135
0.956723
0.954571
0.951496
0.947281
0.941666
0.934335
0.924929
0.913032
0.89819
0.879932
0.857694
0.830476
0.795835
0.747906
0.675262
0.562637
0.403747
0.223661
0.0800772
0.0129447
0.625876
0.862636
0.91404
0.929542
0.937712
0.943742
0.950043
0.957763
0.96744
0.978764
0.988939
0.994538
0.997274
0.998585
0.998678
0.997342
0.994519
0.990419
0.985436
0.980027
0.974639
0.969644
0.965323
0.961856
0.959335
0.957776
0.957129
0.95712
0.957678
0.958719
0.960148
0.961872
0.963802
0.965857
0.967967
0.970072
0.972127
0.97409
0.975934
0.977638
0.97919
0.98058
0.981805
0.982866
0.983765
0.984506
0.985099
0.985548
0.98586
0.986047
0.986117
0.986081
0.98594
0.985712
0.985401
0.985017
0.984568
0.984061
0.983509
0.98291
0.98228
0.981621
0.980939
0.980242
0.979532
0.978818
0.978098
0.977381
0.976668
0.975962
0.975265
0.97458
0.973907
0.973246
0.972601
0.97197
0.971355
0.970755
0.970172
0.969606
0.969053
0.968516
0.967998
0.967494
0.967003
0.966522
0.966054
0.965597
0.965154
0.964723
0.964308
0.963911
0.96353
0.963167
0.962829
0.962513
0.962221
0.961961
0.96173
0.961531
0.96137
0.961247
0.961161
0.96112
0.961118
0.961155
0.961228
0.961337
0.96147
0.96162
0.961771
0.961906
0.961996
0.962017
0.961923
0.961668
0.961192
0.960427
0.959285
0.957664
0.955444
0.952488
0.94862
0.943644
0.937328
0.929384
0.919494
0.907294
0.892391
0.874359
0.852658
0.826283
0.792849
0.746841
0.677621
0.570531
0.417728
0.23947
0.0904289
0.01575
0.695346
0.890668
0.920342
0.932794
0.939751
0.945293
0.951089
0.958861
0.969031
0.981129
0.991688
0.996472
0.998449
0.999277
0.998745
0.99635
0.991999
0.986033
0.979032
0.971626
0.964397
0.957812
0.952212
0.947806
0.944681
0.942835
0.942185
0.942303
0.943183
0.944705
0.946739
0.949156
0.951836
0.954672
0.957573
0.960464
0.963279
0.965977
0.968524
0.970891
0.973068
0.975047
0.976823
0.9784
0.979782
0.980976
0.981993
0.982841
0.983531
0.984075
0.984483
0.984766
0.984935
0.985
0.984971
0.984857
0.984671
0.984418
0.984107
0.983747
0.983343
0.982905
0.982438
0.981949
0.981439
0.980918
0.980386
0.97985
0.979311
0.978773
0.978238
0.977706
0.97718
0.976665
0.976158
0.975656
0.97517
0.974689
0.974222
0.973763
0.973318
0.97288
0.972457
0.972043
0.97164
0.971241
0.970849
0.970465
0.970087
0.969717
0.969354
0.969002
0.96866
0.96833
0.968011
0.967705
0.967413
0.967138
0.96688
0.966639
0.966416
0.966212
0.966025
0.965856
0.965701
0.96556
0.965425
0.96529
0.965149
0.964987
0.964788
0.964531
0.964194
0.963744
0.963142
0.96234
0.961286
0.959907
0.958126
0.955847
0.952959
0.949331
0.944807
0.939207
0.932308
0.923854
0.913563
0.901103
0.886126
0.868241
0.846916
0.82113
0.788523
0.743801
0.67689
0.57372
0.425686
0.249805
0.097884
0.0180091
0.741755
0.900537
0.92489
0.935068
0.941091
0.94626
0.952029
0.95951
0.970156
0.983047
0.994015
0.997882
0.999196
0.999667
0.99845
0.994707
0.988398
0.980091
0.970617
0.960821
0.951435
0.943033
0.936011
0.930597
0.926875
0.924808
0.924265
0.924624
0.925972
0.928141
0.930955
0.93424
0.937838
0.941615
0.945452
0.949255
0.952952
0.956488
0.959822
0.96293
0.965798
0.968419
0.970793
0.972924
0.974821
0.976494
0.977957
0.979218
0.980296
0.981203
0.981952
0.982556
0.983029
0.983381
0.983626
0.983773
0.983835
0.983819
0.983736
0.983594
0.9834
0.983162
0.982887
0.982581
0.982249
0.981896
0.981526
0.981144
0.980754
0.980355
0.979954
0.979553
0.979151
0.978751
0.978353
0.977959
0.977568
0.977183
0.976802
0.976427
0.976059
0.975699
0.975343
0.974993
0.974649
0.974306
0.973964
0.973626
0.973287
0.972954
0.972621
0.972291
0.971965
0.971644
0.971325
0.971011
0.970701
0.970395
0.970096
0.969797
0.969504
0.969214
0.968921
0.968627
0.968328
0.968017
0.967689
0.967335
0.966944
0.966502
0.965993
0.965397
0.964686
0.963828
0.962786
0.961516
0.959963
0.958063
0.95574
0.952904
0.949453
0.945262
0.940188
0.934056
0.926665
0.917785
0.907147
0.894457
0.879399
0.861602
0.840536
0.815157
0.783099
0.739202
0.673807
0.57338
0.429064
0.255754
0.102802
0.0196572
0.775517
0.907999
0.928539
0.936546
0.941791
0.946669
0.952501
0.960047
0.970817
0.984503
0.995941
0.99885
0.99963
0.999866
0.997824
0.99234
0.98355
0.972364
0.959936
0.947351
0.935506
0.925076
0.916513
0.910066
0.9058
0.903629
0.903076
0.903852
0.905891
0.908952
0.912793
0.917182
0.921917
0.926824
0.931762
0.93662
0.941315
0.945786
0.949993
0.95391
0.957525
0.960834
0.963842
0.966558
0.968994
0.971164
0.973085
0.974775
0.976247
0.977521
0.978614
0.979538
0.98031
0.980945
0.981456
0.981855
0.982154
0.982364
0.982495
0.982556
0.982555
0.982501
0.982402
0.982261
0.982086
0.981885
0.981657
0.98141
0.981148
0.980872
0.980585
0.980289
0.979988
0.979682
0.979373
0.979063
0.978751
0.978438
0.978125
0.977815
0.977502
0.977192
0.976884
0.97658
0.976274
0.975965
0.975656
0.975341
0.975026
0.974707
0.974386
0.974062
0.973733
0.973404
0.97307
0.972732
0.972388
0.972041
0.971688
0.971327
0.970958
0.970573
0.970176
0.96976
0.969317
0.968846
0.968336
0.967779
0.967162
0.966468
0.965681
0.964781
0.963738
0.962522
0.9611
0.959422
0.957438
0.955087
0.952298
0.948984
0.945051
0.940378
0.934832
0.928249
0.920439
0.911186
0.900248
0.887352
0.872206
0.85446
0.833568
0.808458
0.776738
0.733319
0.668857
0.570318
0.42891
0.258223
0.105577
0.0207292
0.800839
0.91333
0.930623
0.937338
0.9419
0.946506
0.952442
0.960438
0.971095
0.985485
0.997489
0.999457
0.999856
0.999955
0.996863
0.989143
0.977267
0.962627
0.946755
0.930996
0.916409
0.903767
0.893581
0.886116
0.88141
0.879314
0.878877
0.880298
0.883276
0.887484
0.892599
0.898323
0.904399
0.910616
0.916807
0.922844
0.928638
0.934123
0.939262
0.944038
0.948436
0.952463
0.956126
0.959442
0.962427
0.965102
0.967487
0.969604
0.971472
0.973112
0.974542
0.975783
0.976851
0.977762
0.978532
0.979175
0.9797
0.980124
0.980456
0.980707
0.980888
0.981003
0.981063
0.981075
0.981043
0.980975
0.980874
0.980745
0.980594
0.98042
0.980232
0.980026
0.979809
0.979579
0.979344
0.979099
0.978847
0.97859
0.978329
0.978063
0.977792
0.977519
0.977242
0.976961
0.976678
0.976389
0.976093
0.975791
0.975481
0.975163
0.974837
0.974502
0.97416
0.973808
0.973447
0.973073
0.972688
0.97229
0.971874
0.971443
0.97099
0.970513
0.970008
0.969469
0.968892
0.968265
0.967586
0.966837
0.96601
0.965086
0.964047
0.962873
0.961534
0.960003
0.95824
0.956203
0.953843
0.951099
0.947906
0.944182
0.939831
0.934743
0.928788
0.921813
0.913634
0.904058
0.892854
0.879772
0.86454
0.846813
0.826035
0.80109
0.76954
0.726334
0.662372
0.56509
0.425994
0.257939
0.10659
0.0212951
0.820119
0.917081
0.931725
0.937496
0.941412
0.945753
0.951798
0.960269
0.971349
0.985974
0.998667
0.999794
0.999957
0.999988
0.995538
0.984985
0.969365
0.950679
0.930892
0.911608
0.894027
0.879014
0.867147
0.858719
0.853742
0.85197
0.852058
0.854424
0.858654
0.864301
0.870952
0.878235
0.885835
0.893504
0.901054
0.908353
0.9153
0.921842
0.927939
0.933583
0.938772
0.943516
0.947832
0.951742
0.955269
0.958442
0.961281
0.963815
0.966068
0.968065
0.969825
0.97137
0.972722
0.973897
0.974914
0.975784
0.97653
0.977154
0.977678
0.978106
0.978454
0.978724
0.978931
0.97908
0.979178
0.979228
0.979239
0.979214
0.979159
0.979075
0.978968
0.978838
0.978692
0.978525
0.978345
0.978153
0.977948
0.977731
0.977505
0.977269
0.977028
0.976774
0.976514
0.976249
0.975974
0.975692
0.975396
0.975091
0.974773
0.974443
0.9741
0.973745
0.973374
0.972992
0.972591
0.972174
0.971738
0.971279
0.970798
0.970287
0.969749
0.969177
0.968562
0.967904
0.967194
0.966421
0.965576
0.964651
0.963627
0.96249
0.961222
0.959799
0.958194
0.956375
0.954312
0.951958
0.949266
0.946182
0.942634
0.938548
0.933833
0.928382
0.922071
0.914747
0.90625
0.896387
0.884946
0.871698
0.856385
0.838661
0.817949
0.793084
0.761573
0.71837
0.654576
0.558096
0.42088
0.255476
0.106188
0.0214376
0.83489
0.919644
0.932099
0.936975
0.940326
0.944369
0.950522
0.959521
0.971465
0.986067
0.999483
0.999947
0.999991
0.999998
0.993802
0.979736
0.959672
0.936369
0.912246
0.889132
0.868337
0.850803
0.837205
0.827911
0.822913
0.821523
0.822545
0.826351
0.832332
0.839875
0.848433
0.85755
0.866866
0.87611
0.88509
0.893676
0.901782
0.909361
0.916392
0.922874
0.928818
0.934243
0.939177
0.943648
0.947685
0.951326
0.954593
0.95752
0.960133
0.962462
0.964532
0.966367
0.967983
0.969409
0.970655
0.971742
0.972686
0.973502
0.974199
0.974792
0.975289
0.975704
0.976043
0.976316
0.976526
0.976684
0.976791
0.976856
0.976884
0.976876
0.976837
0.97677
0.97668
0.976565
0.976429
0.976275
0.976103
0.975914
0.975711
0.975495
0.975267
0.975024
0.974769
0.974503
0.974225
0.973937
0.97363
0.97331
0.972974
0.972623
0.972254
0.971866
0.971462
0.971036
0.970588
0.970119
0.969622
0.969098
0.968543
0.967953
0.967325
0.966653
0.965932
0.965155
0.964311
0.963396
0.962397
0.961302
0.960097
0.958762
0.957283
0.955631
0.953785
0.951713
0.94938
0.946742
0.943758
0.940369
0.93651
0.932108
0.927073
0.921302
0.914673
0.907049
0.898267
0.888147
0.8765
0.863105
0.847717
0.829981
0.809304
0.784454
0.752869
0.7095
0.645627
0.549616
0.413992
0.251291
0.104665
0.0212384
0.846177
0.921224
0.931768
0.935687
0.938621
0.942316
0.948553
0.958117
0.971001
0.986151
0.999929
0.999995
1
1
0.991597
0.973269
0.948057
0.919615
0.890808
0.863629
0.839425
0.819204
0.803798
0.793769
0.789111
0.787519
0.790185
0.796244
0.804755
0.814842
0.825794
0.837066
0.848281
0.85918
0.869596
0.879431
0.888624
0.897162
0.905037
0.912272
0.918888
0.924921
0.930401
0.935368
0.939857
0.94391
0.947558
0.950836
0.953774
0.956402
0.958749
0.960841
0.962699
0.964346
0.965802
0.967083
0.968209
0.969192
0.970047
0.970787
0.971422
0.971963
0.972419
0.9728
0.97311
0.973358
0.97355
0.973693
0.973789
0.973843
0.973861
0.973843
0.973796
0.973719
0.973613
0.973487
0.973337
0.973166
0.972973
0.972766
0.972539
0.972294
0.972033
0.97176
0.971468
0.971161
0.970836
0.97049
0.970124
0.969741
0.969334
0.968907
0.968458
0.967981
0.96748
0.966949
0.966388
0.965791
0.965159
0.964485
0.963764
0.962992
0.962161
0.961264
0.960293
0.959241
0.958094
0.95684
0.955462
0.953947
0.95227
0.950413
0.948348
0.946045
0.94347
0.940583
0.937339
0.93368
0.929544
0.924863
0.919544
0.913489
0.90658
0.898686
0.88965
0.879308
0.86748
0.853955
0.8385
0.820753
0.800078
0.775179
0.743433
0.699766
0.635626
0.539857
0.405649
0.245736
0.102265
0.0207714
0.854664
0.922021
0.930894
0.933896
0.936269
0.939536
0.945821
0.955989
0.969946
0.986229
1
0.999999
0.999998
0.999999
0.988875
0.965475
0.934426
0.900418
0.866698
0.835315
0.807539
0.784387
0.766972
0.756352
0.752546
0.752356
0.757415
0.766423
0.778029
0.791058
0.804628
0.818142
0.831232
0.843685
0.855397
0.866312
0.876428
0.885753
0.894316
0.902154
0.909309
0.915824
0.921743
0.92711
0.931967
0.936358
0.940317
0.943882
0.94709
0.949972
0.95255
0.95486
0.956923
0.958761
0.960393
0.961842
0.963124
0.964253
0.965246
0.966111
0.966863
0.96751
0.968067
0.96854
0.968932
0.969259
0.969519
0.969724
0.969875
0.969977
0.970036
0.970054
0.970037
0.969985
0.969902
0.969788
0.969646
0.969482
0.96929
0.969078
0.968842
0.968588
0.968311
0.968016
0.9677
0.967367
0.967008
0.966629
0.966226
0.965801
0.965351
0.964872
0.964369
0.963837
0.963273
0.962676
0.962042
0.961371
0.960656
0.959891
0.959078
0.958201
0.957262
0.956251
0.955155
0.953969
0.952681
0.951273
0.949737
0.94805
0.946194
0.944149
0.941884
0.939375
0.936583
0.933472
0.929995
0.926098
0.92172
0.916788
0.911217
0.904909
0.897748
0.889611
0.880352
0.869812
0.857827
0.844201
0.828691
0.810927
0.790226
0.765236
0.733246
0.689172
0.624632
0.528963
0.396086
0.239089
0.099186
0.0201002
0.860839
0.92217
0.929535
0.931553
0.933231
0.935976
0.942248
0.953052
0.968228
0.985964
1
1
0.999998
0.999997
0.985597
0.956254
0.91874
0.878884
0.840206
0.804635
0.773159
0.746677
0.726725
0.715624
0.711125
0.714127
0.723969
0.737989
0.753996
0.770552
0.786827
0.8024
0.817052
0.830711
0.843368
0.855042
0.865778
0.875628
0.884642
0.892876
0.900387
0.907221
0.913434
0.919071
0.924185
0.928812
0.932993
0.936773
0.940179
0.943248
0.946006
0.948484
0.950705
0.952693
0.95447
0.956049
0.957454
0.9587
0.959801
0.960767
0.961611
0.962347
0.962981
0.963525
0.963986
0.96437
0.964681
0.96493
0.965122
0.965258
0.965347
0.965388
0.965386
0.965345
0.96527
0.965159
0.965015
0.964843
0.964642
0.964414
0.96416
0.96388
0.963577
0.96325
0.962902
0.962531
0.962132
0.96171
0.96126
0.960782
0.960279
0.959745
0.95918
0.958582
0.957949
0.957278
0.95657
0.955814
0.955011
0.954157
0.953244
0.952268
0.951217
0.950091
0.948874
0.947561
0.946135
0.944585
0.942899
0.941054
0.939035
0.936816
0.934372
0.931677
0.928693
0.925383
0.921698
0.917589
0.912995
0.907839
0.902038
0.895505
0.88812
0.879766
0.870308
0.8596
0.847484
0.833773
0.818222
0.80044
0.779699
0.754569
0.722264
0.677698
0.612666
0.517024
0.385479
0.231563
0.0955841
0.0192768
0.865014
0.921764
0.927701
0.928492
0.929153
0.931583
0.937753
0.949207
0.965759
0.985292
0.999997
0.999997
0.999998
0.999996
0.981724
0.945517
0.901007
0.855263
0.811863
0.772398
0.737233
0.706821
0.682997
0.670982
0.667048
0.677112
0.69532
0.716239
0.736996
0.756577
0.77476
0.791552
0.807013
0.821221
0.834263
0.84622
0.857172
0.867197
0.876362
0.88473
0.892365
0.899328
0.905662
0.91142
0.91665
0.9214
0.925704
0.929598
0.93312
0.936302
0.939172
0.941758
0.944083
0.946171
0.948043
0.949716
0.951209
0.952534
0.953711
0.954749
0.95566
0.956454
0.957146
0.957738
0.958239
0.958663
0.959008
0.959284
0.959498
0.95965
0.95975
0.959798
0.959799
0.959757
0.959674
0.959553
0.959393
0.959201
0.958978
0.958722
0.958438
0.958123
0.957783
0.957415
0.957022
0.956603
0.956153
0.955676
0.955171
0.954633
0.954065
0.953465
0.95283
0.952161
0.951454
0.950705
0.949911
0.94907
0.948177
0.947227
0.946215
0.945134
0.943977
0.942738
0.941402
0.939966
0.938411
0.936728
0.934901
0.932912
0.930743
0.928368
0.925764
0.922901
0.919744
0.916254
0.912385
0.908086
0.90329
0.897936
0.891931
0.885187
0.8776
0.869054
0.859423
0.848573
0.83635
0.822581
0.807007
0.789208
0.768404
0.743095
0.710423
0.665297
0.599725
0.504096
0.373952
0.223314
0.0915797
0.0183421
0.867362
0.920903
0.925499
0.924839
0.924128
0.926322
0.932253
0.944339
0.962419
0.984194
1
1
0.999998
1
0.977219
0.933163
0.881304
0.829999
0.78259
0.740085
0.70176
0.666984
0.63635
0.612817
0.622658
0.655711
0.685865
0.709387
0.731098
0.751222
0.769927
0.78658
0.801804
0.815729
0.828486
0.840178
0.850891
0.860702
0.869688
0.877907
0.885426
0.89229
0.89856
0.90427
0.909473
0.914207
0.918513
0.922422
0.925966
0.92918
0.932082
0.934707
0.937074
0.939206
0.941122
0.942839
0.944372
0.945743
0.946956
0.948031
0.948976
0.949801
0.950517
0.951131
0.951654
0.952089
0.952446
0.952729
0.952944
0.953096