/*--------------------------------*- C++ -*----------------------------------*\
  =========                 |
  \\      /  F ield         | OpenFOAM: The Open Source CFD Toolbox
   \\    /   O peration     | Website:  https://openfoam.org
    \\  /    A nd           | Version:  13
     \\/     M anipulation  |
\*---------------------------------------------------------------------------*/
FoamFile
{
    format      ascii;
    class       volScalarField;
    location    "169.831886";
    object      T;
}
// * * * * * * * * * * * * * * * * * * * * * * * * * * * * * * * * * * * * * //

dimensions      [0 0 0 1 0 0 0];

internalField   nonuniform List<scalar> 
5712
(
1062.09
1061.96
1061.74
1061.53
1061.19
1060.98
1060.41
1060.25
1060.55
1060.36
1061.16
1060.96
1061.6
1061.41
1061.92
1061.78
1061.03
1060.77
1060.68
1060.32
1060.09
1059.76
1059.77
1059.35
1062.58
1063.39
1062.44
1063.19
1062.25
1063.02
1062.03
1062.75
1061.49
1061.9
1061.12
1061.63
1062.56
1062.12
1060.24
1059.59
1059.89
1059.41
1059.39
1058.85
1058.97
1058.56
1061.05
1060.37
1060.66
1060.15
1061.68
1061.02
1064.31
1064.84
1063.92
1064.48
1063.93
1064.61
1063.49
1064.1
1063.39
1064.31
1062.71
1063.56
1062.19
1063.02
1061.6
1062.45
1060.85
1060.74
1060.29
1060.24
1059.61
1059.46
1059.17
1059.02
1061.37
1061.54
1062.04
1062.08
1059.82
1059.82
1059.39
1059.48
1058.77
1058.64
1058.39
1058.32
1060.82
1061.1
1060.34
1060.74
1062.43
1063.45
1062.84
1063.99
1063.16
1064.21
1063.4
1064.61
1061.83
1062.82
1062.37
1063.51
1061.3
1062.28
1062.01
1063.12
1065.6
1066.79
1065.79
1066.98
1065.25
1066.35
1065.61
1066.74
1064.66
1065.5
1065.29
1066.21
1061.66
1060.18
1063
1064.01
1065.09
1060.38
1061.94
1063.53
1064.61
1065.79
1060.02
1061.41
1062.76
1064.03
1065.27
1067.89
1068.41
1068.51
1068.98
1067.33
1067.93
1068.13
1068.64
1066.37
1067.04
1067.5
1068.1
1060.7
1061.23
1062.41
1063.14
1063.98
1064.74
1065.23
1066
1066.9
1067.67
1060.26
1060.68
1061.81
1062.58
1063.28
1064.16
1064.73
1065.69
1066.57
1067.59
1061.12
1061.99
1060.5
1061.27
1059.6
1059.82
1059.04
1059.16
1062.05
1063.08
1062.66
1063.76
1059.97
1060.74
1059.63
1060.37
1058.59
1058.7
1058.27
1058.35
1061.49
1062.55
1061.14
1062.18
1063.81
1065.07
1065.99
1067.54
1064.3
1065.63
1066.31
1067.83
1063.35
1064.58
1065.68
1067.2
1062.92
1064.16
1065.23
1066.67
1068.54
1068.73
1069.15
1068.66
1068.71
1069.08
1068.18
1068.43
1068.87
1068.39
1068.46
1068.87
1067.44
1067.79
1068.29
1067.98
1068.12
1068.57
1061.88
1062.63
1063.44
1063.92
1064.56
1065.27
1065.46
1066.01
1066.63
1066.57
1067.03
1067.61
1067.66
1067.87
1068.4
1061.28
1062.12
1063.03
1063.6
1064.48
1065.37
1065.19
1065.95
1066.75
1066.48
1067.03
1067.73
1067.65
1067.92
1068.54
1058.42
1058.15
1058.18
1057.84
1059.18
1058.84
1058.9
1058.49
1058.23
1057.65
1058.17
1057.62
1058.08
1057.56
1057.96
1057.47
1057.59
1057.81
1057.45
1057.71
1057.46
1057.28
1057.57
1057.26
1058.16
1057.81
1057.44
1057.15
1057.23
1056.95
1057.17
1056.88
1057.06
1056.54
1057.16
1056.66
1057
1056.46
1057.02
1056.52
1056.94
1056.35
1056.82
1056.27
1056.73
1056.24
1056.48
1056.07
1057.78
1057.54
1057.48
1057.2
1058.58
1058.36
1058.21
1057.98
1056.96
1056.63
1057.22
1056.93
1057.18
1056.91
1056.88
1056.66
1057.87
1057.66
1057.54
1057.37
1056.7
1056.38
1056.42
1056.15
1056.52
1056.04
1056.25
1055.96
1056.73
1056.23
1056.51
1056.17
1056.31
1055.88
1056.03
1055.77
1056.07
1055.71
1055.83
1055.61
1057.06
1057.29
1056.59
1056.83
1057.06
1057.31
1056.56
1056.81
1057.06
1057.29
1056.5
1056.74
1057.99
1058.93
1057.4
1056.94
1056.44
1059.11
1058.18
1057.62
1057.17
1056.65
1058.76
1057.85
1057.2
1056.76
1056.39
1057.71
1058.28
1057.26
1057.82
1057.68
1058.23
1057.19
1057.73
1057.61
1058.13
1057.07
1057.57
1059.34
1059.78
1058.36
1058.8
1057.79
1058.25
1057.36
1057.83
1056.87
1057.34
1058.9
1059.15
1057.97
1058.22
1057.34
1057.64
1056.92
1057.3
1056.6
1057.08
1057.47
1057.55
1057.13
1057.1
1058.32
1058.37
1057.91
1057.82
1056.62
1056.72
1056.92
1057.1
1056.86
1056.76
1056.61
1056.47
1057.58
1057.42
1057.29
1057.1
1056.39
1056.42
1056.16
1056.17
1056.31
1056.54
1056.15
1056.53
1056.58
1056.88
1056.36
1056.79
1056.09
1056.26
1055.96
1056.3
1055.9
1056.05
1055.8
1056.09
1059.07
1059.85
1060.58
1058.79
1059.67
1060.4
1058.97
1059.76
1060.51
1058.66
1059.55
1060.32
1058.82
1059.59
1060.36
1058.46
1059.39
1060.21
1060.37
1061.12
1061.93
1059.41
1060.19
1061.01
1058.87
1059.68
1060.52
1058.49
1059.3
1060.11
1058.24
1059.22
1060.11
1059.62
1060.42
1061.34
1058.71
1059.54
1060.46
1058.21
1059.08
1060.03
1057.98
1058.9
1059.86
1058.02
1059.04
1060.02
1056.3
1056.61
1057.47
1059.09
1056.45
1056.78
1057.67
1059.31
1056.24
1056.56
1057.43
1059.06
1056.33
1056.69
1057.59
1059.23
1056.16
1056.5
1057.33
1058.91
1056.12
1056.51
1057.4
1059.02
1056.15
1056.58
1057.53
1059.2
1056.06
1056.54
1057.54
1059.21
1055.97
1056.37
1057.24
1058.85
1055.99
1056.43
1057.23
1058.67
1056.1
1056.47
1057.25
1058.74
1056.15
1056.54
1057.28
1058.64
1055.85
1056.31
1057.24
1058.91
1055.86
1056.34
1057.18
1058.66
1055.74
1056.24
1057.21
1058.86
1055.74
1056.26
1057.13
1058.6
1056.33
1056.6
1057.38
1058.91
1056.53
1056.76
1057.42
1058.75
1056.31
1056.59
1057.36
1058.88
1056.52
1056.76
1057.42
1058.74
1056.29
1056.58
1057.33
1058.8
1056.48
1056.74
1057.41
1058.71
1056.28
1056.6
1057.31
1058.7
1056.44
1056.73
1057.39
1058.66
1056.3
1056.65
1057.33
1058.59
1056.85
1057.03
1057.63
1058.57
1057.2
1057.36
1057.97
1058.86
1056.81
1057.01
1057.61
1058.56
1057.16
1057.34
1057.96
1058.85
1056.74
1056.97
1057.59
1058.54
1057.09
1057.3
1057.94
1058.83
1056.63
1056.92
1057.55
1058.5
1056.99
1057.25
1057.91
1058.81
1056.5
1056.84
1057.5
1058.46
1056.88
1057.2
1057.88
1058.79
1056.25
1056.7
1057.43
1058.43
1056.59
1057.03
1057.78
1058.72
1056.37
1056.77
1057.46
1058.45
1056.73
1057.12
1057.83
1058.75
1056.13
1056.63
1057.39
1058.41
1056.45
1056.95
1057.73
1058.68
1056.03
1056.56
1057.35
1058.38
1056.33
1056.87
1057.68
1058.64
1061.58
1063.6
1065.32
1066.73
1067.82
1061.71
1063.7
1065.42
1066.83
1067.92
1061.57
1063.59
1065.32
1066.73
1067.82
1061.69
1063.69
1065.41
1066.82
1067.91
1061.54
1063.58
1065.31
1066.72
1067.81
1061.6
1063.61
1065.33
1066.75
1067.84
1061.65
1063.66
1065.39
1066.8
1067.9
1061.62
1063.64
1065.37
1066.79
1067.88
1061.52
1063.57
1065.3
1066.71
1067.81
1061.63
1063.72
1065.46
1066.87
1067.96
1061.55
1063.6
1065.34
1066.75
1067.84
1061.66
1063.75
1065.49
1066.9
1067.99
1061.52
1063.57
1065.3
1066.72
1067.81
1061.64
1063.73
1065.48
1066.89
1067.98
1061.49
1063.55
1065.29
1066.71
1067.8
1061.63
1063.74
1065.48
1066.9
1067.99
1061.6
1063.64
1065.37
1066.78
1067.87
1061.75
1063.82
1065.55
1066.96
1068.05
1061.59
1063.65
1065.38
1066.79
1067.88
1061.74
1063.82
1065.56
1066.96
1068.05
1061.6
1063.66
1065.4
1066.81
1067.9
1061.74
1063.83
1065.57
1066.98
1068.07
1061.64
1063.73
1065.47
1066.88
1067.97
1061.77
1063.86
1065.6
1067.01
1068.1
1061.73
1063.83
1065.56
1066.97
1068.07
1071.09
1071.43
1070.94
1071.29
1070.66
1071.05
1070.31
1070.77
1069.97
1070.5
1069.44
1070.05
1069.72
1070.31
1069.17
1069.76
1068.89
1069.43
1074.94
1079.19
1082.77
1085.58
1087.5
1074.88
1079.15
1082.78
1085.6
1087.55
1074.88
1079.15
1082.75
1085.56
1087.48
1074.82
1079.13
1082.76
1085.6
1087.54
1074.74
1079.08
1082.7
1085.52
1087.45
1074.69
1079.06
1082.71
1085.56
1087.51
1074.56
1078.97
1082.63
1085.47
1087.4
1074.52
1078.96
1082.64
1085.51
1087.47
1074.35
1078.83
1082.53
1085.39
1087.34
1074.34
1078.84
1082.56
1085.44
1087.41
1073.89
1078.49
1082.27
1085.18
1087.15
1073.93
1078.53
1082.33
1085.26
1087.24
1074.12
1078.66
1082.41
1085.29
1087.25
1074.15
1078.7
1082.46
1085.36
1087.34
1073.66
1078.31
1082.13
1085.07
1087.04
1073.69
1078.34
1082.18
1085.13
1087.12
1073.42
1078.12
1081.98
1084.94
1086.93
1073.42
1078.13
1082.01
1084.99
1087
1057.63
1058.17
1058.6
1057.99
1058.71
1058.63
1058.61
1058.51
1058.8
1058.66
1059.52
1059.35
1059.88
1059.69
1059.34
1059.18
1059.12
1059.01
1059.07
1058.99
1057.99
1057.82
1059.22
1059.81
1060.01
1060.06
1059.52
1059.43
1060.14
1059.26
1060.73
1061.64
1059.37
1059.66
1060.36
1059.54
1059.87
1059.9
1058.83
1058.72
1059.07
1058.92
1058.76
1058.6
1058.74
1058.96
1059.75
1059.58
1059.33
1059.17
1058.24
1057.99
1058.35
1058.14
1058.36
1058.45
1058.8
1059.3
1058.8
1057.04
1056.54
1056.32
1056.33
1056.58
1057.12
1056.71
1056.53
1056.58
1056.9
1058.77
1058.55
1058.53
1058.71
1059.1
1059.37
1059.17
1059.17
1059.36
1059.76
1059.57
1059.36
1059.35
1059.53
1059.93
1059.62
1059.42
1059.42
1059.61
1060.01
1059.07
1058.86
1058.84
1059.02
1059.42
1058.39
1057.75
1057.4
1057.32
1057.49
1059.02
1058.33
1057.97
1057.89
1058.09
1058.53
1058.05
1057.79
1057.79
1058.09
1059.7
1059.04
1058.71
1058.66
1058.91
1060.64
1059.96
1059.62
1059.57
1059.83
1058.8
1058.46
1058.32
1058.41
1058.75
1058.99
1058.56
1058.34
1058.37
1058.69
1059.71
1059.3
1059.09
1059.13
1059.45
1059.01
1058.71
1058.61
1058.73
1059.09
1059.3
1058.97
1058.83
1058.93
1059.27
1059.38
1059.1
1059
1059.13
1059.49
1057.88
1057.33
1057.05
1057.01
1057.22
1058.08
1057.68
1057.49
1057.53
1057.86
1058.53
1058.22
1058.11
1058.22
1058.58
1058.4
1058.12
1058.04
1058.17
1058.54
1058.2
1057.88
1057.75
1057.85
1058.2
1058.07
1057.78
1057.69
1057.81
1058.18
1058.25
1058
1057.95
1058.11
1058.49
1058.48
1058.23
1058.18
1058.34
1058.72
1059.27
1059.03
1058.98
1059.13
1059.52
1059.12
1058.9
1058.86
1059.03
1059.42
1058.82
1058.55
1058.48
1058.62
1058.99
1058.68
1058.43
1058.37
1058.52
1058.9
1057.31
1056.8
1056.56
1056.56
1056.79
1057.34
1056.95
1056.78
1056.84
1057.17
1057.59
1057.14
1056.92
1056.93
1057.2
1057.57
1057.24
1057.1
1057.2
1057.54
1057.82
1057.51
1057.4
1057.52
1057.88
1057.82
1057.44
1057.26
1057.31
1057.64
1058.3
1058.05
1057.99
1058.14
1058.52
1058.83
1058.61
1058.57
1058.75
1059.14
1058.29
1058.02
1057.94
1058.08
1058.45
1058.06
1058.34
1058.09
1058.39
1057.36
1057.67
1057.34
1057.63
1058.11
1058.15
1058.41
1058.35
1057.36
1057.38
1057.66
1057.57
1058.81
1059.53
1059.05
1059.75
1058.81
1059.47
1059.1
1059.74
1059.12
1058.86
1058.96
1058.8
1059.37
1059.63
1058.77
1059.08
1058.63
1058.98
1058.05
1058.37
1057.85
1058.17
1059.47
1059.8
1059.26
1059.65
1059.99
1060.4
1060.19
1060.75
1060.37
1060.91
1060.15
1060.82
1060.39
1060.98
1060.03
1060.95
1060.19
1061.01
1060.53
1061.37
1061.01
1061.86
1058.37
1058.56
1058.51
1058.72
1057.44
1057.49
1057.59
1057.64
1059.4
1059.94
1059.28
1059.76
1058.74
1058.93
1059.04
1059.18
1057.81
1057.82
1058.08
1058.05
1059.63
1060.15
1059.95
1060.42
1060.31
1061.33
1061.19
1062.35
1060.23
1061.34
1061.04
1062.27
1060.53
1061.51
1061.39
1062.53
1060.87
1061.84
1061.68
1062.8
1060.25
1060.61
1060.89
1061.44
1060.2
1060.49
1060.98
1061.51
1060.11
1060.26
1061.16
1061.59
1058.34
1057.37
1059.29
1060.29
1061.57
1057.34
1058.26
1059.21
1060.27
1061.8
1057.42
1058.46
1059.65
1060.95
1062.29
1061.16
1061.4
1062.87
1063.36
1060.9
1061.14
1062.77
1063.26
1060.51
1060.71
1062.64
1063.14
1057.36
1057.48
1058.34
1058.49
1059.36
1059.52
1060.59
1060.8
1062.8
1063.33
1057.42
1057.54
1058.56
1058.88
1059.86
1060.27
1061.36
1061.86
1063.39
1064.04
1058.82
1059.38
1058.97
1059.54
1057.52
1057.55
1057.64
1057.63
1060.43
1061.28
1060.25
1061.05
1059.09
1059.75
1059.34
1060.05
1057.79
1057.82
1058.01
1058.06
1060.56
1061.51
1060.84
1061.85
1062.19
1063.29
1064.42
1065.83
1061.9
1062.97
1064.02
1065.34
1062.4
1063.55
1064.76
1066.21
1062.6
1063.82
1064.93
1066.36
1061.48
1061.67
1063
1063.01
1061.22
1061.44
1062.94
1062.92
1060.85
1061.17
1062.87
1062.86
1057.74
1058.2
1058.77
1059.21
1059.76
1060.14
1060.99
1061.34
1062.98
1062.94
1057.79
1058.29
1059.31
1059.77
1060.65
1060.98
1061.99
1062.12
1063.37
1063.22
1056.17
1056.15
1056.46
1056.33
1056.7
1056.68
1057.01
1056.88
1055.79
1055.52
1056.06
1055.78
1055.8
1055.55
1056.09
1055.82
1056.04
1055.8
1056.01
1055.83
1055.6
1055.84
1056.6
1056.92
1057.14
1057.45
1056.39
1056.76
1056.29
1056.61
1056.18
1056.51
1055.34
1055.21
1055.59
1055.45
1055.35
1055.19
1055.61
1055.43
1055.38
1055.17
1055.57
1055.34
1055.88
1055.61
1056.17
1055.84
1056.05
1056.02
1056.19
1056.12
1056.65
1056.64
1056.8
1056.76
1055.77
1055.68
1055.65
1055.6
1056.38
1056.26
1056.62
1056.43
1057.01
1056.92
1057.26
1057.12
1055.96
1055.8
1056.18
1055.96
1055.47
1055.24
1055.42
1055.29
1055.36
1055.17
1055.36
1055.25
1055.64
1055.37
1055.52
1055.36
1055.85
1055.53
1055.66
1055.47
1055.23
1055.28
1055.12
1055.2
1055.26
1055.31
1055.13
1055.21
1055.32
1055.36
1055.14
1055.22
1056
1056.59
1055.61
1055.34
1055.18
1056.59
1056.03
1055.65
1055.38
1055.24
1056.57
1055.99
1055.58
1055.35
1055.25
1055.46
1055.79
1055.42
1055.77
1055.47
1055.77
1055.4
1055.74
1055.48
1055.74
1055.38
1055.69
1056.59
1056.71
1056.03
1056.18
1055.68
1055.87
1055.45
1055.67
1055.36
1055.64
1056.54
1056.57
1055.96
1056.02
1055.59
1055.71
1055.4
1055.59
1055.36
1055.63
1055.93
1055.89
1056.04
1055.93
1056.53
1056.44
1056.66
1056.49
1055.66
1055.67
1055.57
1055.64
1056.21
1056.06
1056.39
1056.25
1056.85
1056.64
1057.05
1056.84
1055.81
1055.79
1055.97
1055.96
1055.46
1055.6
1055.45
1055.72
1055.4
1055.58
1055.39
1055.67
1055.57
1055.7
1055.54
1055.81
1055.72
1055.86
1055.66
1055.93
1056.18
1056.54
1056.27
1056.7
1056.13
1056.52
1056.23
1056.69
1056.09
1056.52
1056.17
1056.7
1056.97
1057.44
1056.47
1056.95
1056.18
1056.66
1056.01
1056.51
1056.13
1056.75
1056.77
1057.31
1056.26
1056.82
1056.02
1056.62
1055.99
1056.61
1056.18
1056.88
1055.38
1055.99
1057.05
1058.81
1055.6
1056.21
1057.28
1059.04
1055.37
1055.97
1057.03
1058.8
1055.58
1056.18
1057.24
1059
1055.36
1055.96
1056.96
1058.67
1055.49
1056.08
1057.1
1058.82
1055.72
1056.29
1057.33
1059.06
1055.91
1056.44
1057.46
1059.16
1055.41
1056
1056.98
1058.67
1055.52
1056.11
1057
1058.5
1055.38
1055.98
1056.91
1058.51
1055.5
1056.1
1056.97
1058.42
1055.5
1056.07
1057.08
1058.79
1055.57
1056.14
1057.04
1058.55
1055.62
1056.16
1057.15
1058.82
1055.65
1056.19
1057.08
1058.56
1055.31
1055.92
1056.92
1058.59
1055.42
1056.02
1056.92
1058.4
1055.33
1055.93
1056.92
1058.58
1055.44
1056.04
1056.93
1058.4
1055.36
1055.96
1056.91
1058.52
1055.46
1056.07
1056.95
1058.4
1055.43
1056.03
1056.92
1058.44
1055.5
1056.11
1056.97
1058.37
1055.52
1056.13
1056.97
1058.35
1055.65
1056.25
1057.1
1058.17
1055.97
1056.56
1057.43
1058.43
1055.65
1056.25
1057.1
1058.17
1055.96
1056.56
1057.43
1058.43
1055.66
1056.26
1057.11
1058.18
1055.97
1056.57
1057.44
1058.44
1055.66
1056.27
1057.11
1058.18
1055.97
1056.59
1057.45
1058.45
1055.67
1056.29
1057.11
1058.17
1055.99
1056.61
1057.47
1058.46
1055.77
1056.37
1057.2
1058.24
1056.05
1056.67
1057.52
1058.51
1055.71
1056.32
1057.15
1058.21
1056
1056.63
1057.49
1058.48
1055.84
1056.43
1057.25
1058.29
1056.12
1056.73
1057.57
1058.55
1055.93
1056.49
1057.3
1058.34
1056.22
1056.8
1057.62
1058.6
1061.41
1063.49
1065.25
1066.68
1067.79
1061.55
1063.6
1065.36
1066.78
1067.88
1061.41
1063.49
1065.26
1066.69
1067.79
1061.54
1063.6
1065.35
1066.78
1067.88
1061.4
1063.49
1065.26
1066.68
1067.78
1061.48
1063.54
1065.29
1066.72
1067.81
1061.56
1063.61
1065.36
1066.78
1067.88
1061.59
1063.62
1065.36
1066.78
1067.88
1061.42
1063.5
1065.26
1066.69
1067.79
1061.53
1063.66
1065.42
1066.85
1067.95
1061.42
1063.53
1065.29
1066.72
1067.82
1061.55
1063.68
1065.45
1066.87
1067.97
1061.45
1063.52
1065.28
1066.7
1067.8
1061.57
1063.69
1065.45
1066.88
1067.97
1061.47
1063.53
1065.28
1066.7
1067.8
1061.61
1063.72
1065.47
1066.9
1067.99
1061.42
1063.54
1065.31
1066.74
1067.84
1061.56
1063.71
1065.49
1066.92
1068.02
1061.43
1063.55
1065.31
1066.75
1067.85
1061.57
1063.72
1065.49
1066.92
1068.02
1061.45
1063.57
1065.34
1066.77
1067.87
1061.58
1063.74
1065.51
1066.94
1068.04
1061.51
1063.65
1065.42
1066.84
1067.94
1061.63
1063.78
1065.55
1066.98
1068.07
1061.61
1063.75
1065.52
1066.94
1068.04
1066.51
1066.9
1066.56
1066.97
1066.68
1067.1
1066.88
1067.29
1067.2
1067.55
1068.02
1068.48
1067.65
1068.05
1068.33
1068.84
1068.61
1069.13
1071.59
1076.78
1080.96
1084.12
1086.22
1071.48
1076.72
1080.95
1084.14
1086.27
1071.64
1076.81
1080.99
1084.14
1086.24
1071.54
1076.77
1080.98
1084.17
1086.3
1071.74
1076.88
1081.04
1084.18
1086.27
1071.64
1076.83
1081.03
1084.21
1086.33
1071.9
1076.99
1081.12
1084.25
1086.32
1071.79
1076.93
1081.1
1084.27
1086.37
1072.13
1077.14
1081.23
1084.33
1086.4
1071.97
1077.06
1081.19
1084.34
1086.44
1072.67
1077.52
1081.51
1084.56
1086.6
1072.57
1077.46
1081.49
1084.57
1086.63
1072.39
1077.32
1081.36
1084.44
1086.49
1072.25
1077.23
1081.32
1084.44
1086.52
1072.93
1077.72
1081.66
1084.68
1086.7
1072.87
1077.69
1081.66
1084.71
1086.75
1073.18
1077.92
1081.82
1084.81
1086.82
1073.15
1077.92
1081.84
1084.85
1086.88
1057.22
1057.73
1057.38
1056.85
1056.18
1056.46
1056.18
1056.49
1056.71
1057.04
1056.71
1056.99
1061.98
1061.9
1061.68
1061.35
1060.89
1060.34
1062.02
1061.94
1061.74
1061.42
1061.01
1060.52
1062.2
1062.54
1062.11
1062.43
1061.87
1062.16
1061.49
1061.72
1060.97
1061.15
1060.38
1060.57
1059.76
1059.21
1058.74
1058.36
1058.08
1057.87
1060
1059.5
1059.05
1058.68
1058.39
1058.18
1061.57
1061.41
1061.44
1061.65
1062.07
1061.48
1061.32
1061.35
1061.57
1061.98
1061.27
1061.11
1061.13
1061.35
1061.76
1060.93
1060.76
1060.78
1061
1061.41
1060.47
1060.3
1060.31
1060.52
1060.93
1059.91
1059.73
1059.74
1059.94
1060.35
1061.61
1061.44
1061.47
1061.69
1062.1
1061.53
1061.36
1061.39
1061.61
1062.02
1061.32
1061.16
1061.18
1061.4
1061.81
1061
1060.83
1060.85
1061.07
1061.48
1060.58
1060.41
1060.42
1060.63
1061.04
1060.09
1059.9
1059.91
1060.11
1060.52
1061.79
1061.63
1061.66
1061.88
1062.29
1062.13
1061.97
1062
1062.21
1062.62
1061.7
1061.53
1061.56
1061.78
1062.19
1062.02
1061.86
1061.88
1062.1
1062.51
1061.46
1061.29
1061.32
1061.53
1061.94
1061.75
1061.58
1061.61
1061.82
1062.23
1061.07
1060.9
1060.92
1061.14
1061.55
1061.3
1061.13
1061.15
1061.37
1061.77
1060.55
1060.38
1060.39
1060.6
1061.01
1060.73
1060.55
1060.57
1060.78
1061.18
1059.95
1059.76
1059.77
1059.97
1060.38
1060.14
1059.95
1059.96
1060.16
1060.56
1059.32
1059.12
1059.11
1059.31
1059.71
1058.75
1058.53
1058.51
1058.69
1059.08
1058.26
1058.01
1057.96
1058.12
1058.51
1057.84
1057.56
1057.48
1057.61
1057.98
1057.52
1057.2
1057.09
1057.2
1057.56
1057.28
1056.95
1056.82
1056.92
1057.27
1059.56
1059.36
1059.36
1059.55
1059.95
1059.04
1058.83
1058.81
1058.99
1059.38
1058.58
1058.34
1058.3
1058.47
1058.85
1058.18
1057.92
1057.86
1058.01
1058.39
1057.87
1057.59
1057.51
1057.64
1058.01
1057.65
1057.36
1057.27
1057.4
1057.76
1061.93
1061.76
1061.46
1061.03
1060.48
1059.84
1061.97
1061.8
1061.51
1061.11
1060.61
1060.04
1062.16
1062.49
1061.97
1062.28
1061.63
1061.91
1061.15
1061.36
1060.54
1060.69
1059.84
1059.99
1059.17
1058.56
1058.08
1057.78
1057.67
1057.72
1059.46
1058.93
1058.5
1058.2
1058.07
1058.07
1061.52
1061.36
1061.39
1061.61
1062.02
1061.35
1061.19
1061.21
1061.43
1061.84
1061.04
1060.88
1060.91
1061.13
1061.54
1060.61
1060.45
1060.47
1060.69
1061.1
1060.06
1059.89
1059.91
1060.12
1060.54
1059.41
1059.23
1059.25
1059.46
1059.87
1061.56
1061.4
1061.43
1061.65
1062.06
1061.39
1061.23
1061.26
1061.47
1061.88
1061.1
1060.93
1060.96
1061.18
1061.59
1060.69
1060.52
1060.55
1060.76
1061.17
1060.19
1060.01
1060.03
1060.25
1060.66
1059.61
1059.43
1059.45
1059.65
1060.06
1061.75
1061.58
1061.61
1061.83
1062.24
1062.08
1061.92
1061.95
1062.17
1062.57
1061.56
1061.39
1061.42
1061.64
1062.05
1061.87
1061.71
1061.74
1061.95
1062.36
1061.22
1061.06
1061.08
1061.3
1061.71
1061.5
1061.33
1061.36
1061.58
1061.99
1060.74
1060.57
1060.6
1060.81
1061.22
1060.95
1060.78
1060.81
1061.02
1061.43
1060.12
1059.95
1059.97
1060.19
1060.6
1060.28
1060.1
1060.12
1060.34
1060.75
1059.41
1059.23
1059.25
1059.46
1059.87
1059.56
1059.38
1059.4
1059.61
1060.02
1058.73
1058.54
1058.55
1058.75
1059.16
1058.11
1057.9
1057.89
1058.08
1058.49
1057.61
1057.38
1057.35
1057.52
1057.92
1057.27
1057.01
1056.95
1057.1
1057.48
1057.12
1056.82
1056.72
1056.85
1057.22
1057.14
1056.81
1056.69
1056.79
1057.15
1059.02
1058.83
1058.83
1059.04
1059.44
1058.48
1058.27
1058.26
1058.45
1058.85
1058.03
1057.81
1057.78
1057.95
1058.35
1057.72
1057.47
1057.42
1057.58
1057.96
1057.55
1057.29
1057.21
1057.35
1057.73
1057.54
1057.25
1057.16
1057.29
1057.66
1057.74
1057.62
1058.48
1059.16
1059.21
1059.37
1058.74
1057.33
1057.53
1057.36
1057.98
1057.82
1057.75
1058.15
1058.25
1058.5
1057.27
1057.26
1057.73
1057.77
1057.48
1057.56
1057.92
1058.01
1058.64
1058.63
1058.12
1058.11
1057.49
1057.44
1057.23
1057.38
1057.43
1057.25
1057.87
1058.42
1057.75
1056.8
1056.33
1056.12
1056.15
1056.41
1056.93
1056.54
1056.36
1056.42
1056.75
1058.03
1057.83
1057.82
1058.02
1058.42
1058.73
1058.54
1058.55
1058.75
1059.16
1058.78
1058.59
1058.59
1058.79
1059.19
1058.94
1058.75
1058.76
1058.96
1059.37
1058.3
1058.1
1058.1
1058.3
1058.7
1056.5
1056.07
1055.89
1055.93
1056.19
1056.73
1056.32
1056.15
1056.22
1056.5
1056.76
1056.43
1056.29
1056.39
1056.74
1057.26
1056.9
1056.77
1056.86
1057.19
1057.32
1057.07
1057
1057.16
1057.54
1057.21
1056.91
1056.81
1056.94
1057.31
1057.68
1057.44
1057.4
1057.57
1057.96
1057.76
1057.52
1057.47
1057.63
1058.01
1058.03
1057.81
1057.77
1057.94
1058.34
1056.46
1056.04
1055.87
1055.92
1056.19
1056.7
1056.38
1056.27
1056.39
1056.75
1057.24
1056.99
1056.94
1057.1
1057.49
1057.29
1057.05
1057.01
1057.18
1057.57
1056.97
1056.71
1056.64
1056.79
1057.17
1057.06
1056.81
1056.76
1056.92
1057.3
1057.45
1057.22
1057.19
1057.37
1057.76
1057.55
1057.33
1057.31
1057.49
1057.89
1058.18
1057.97
1057.96
1058.14
1058.54
1058.18
1057.98
1057.97
1058.17
1058.57
1057.66
1057.43
1057.4
1057.58
1057.97
1057.65
1057.43
1057.41
1057.59
1057.99
1056.61
1056.17
1055.98
1056.02
1056.29
1056.81
1056.46
1056.31
1056.4
1056.74
1056.54
1056.17
1056.01
1056.08
1056.39
1056.83
1056.53
1056.43
1056.55
1056.92
1056.92
1056.65
1056.58
1056.72
1057.1
1056.68
1056.36
1056.25
1056.35
1056.71
1057.4
1057.18
1057.14
1057.32
1057.71
1057.97
1057.76
1057.75
1057.94
1058.34
1057.28
1057.04
1057
1057.17
1057.56
1057.96
1057.59
1057.44
1057.51
1057.77
1058.28
1057.98
1058.01
1057.25
1057.24
1058.04
1058.1
1057.27
1057.3
1058.75
1059.56
1058.76
1059.49
1058.83
1058.79
1059.35
1057.96
1058
1057.23
1057.21
1058.03
1058.09
1057.25
1057.29
1058.8
1059.66
1058.8
1059.56
1058.87
1058.81
1059.41
1057.97
1058.01
1057.22
1057.2
1058.05
1058.11
1057.25
1057.29
1058.84
1059.88
1058.85
1059.75
1058.91
1058.84
1059.57
1058.12
1058.15
1057.35
1057.32
1058.19
1058.26
1057.38
1057.43
1059.04
1060.13
1059.04
1060
1059.09
1059.01
1059.78
1058.37
1058.4
1057.6
1057.57
1058.44
1058.52
1057.63
1057.67
1059.3
1060.32
1059.28
1060.2
1059.32
1059.26
1060
1058.81
1058.84
1058.05
1058.03
1058.87
1058.93
1058.08
1058.12
1059.69
1060.63
1059.67
1060.53
1059.7
1059.63
1060.32
1056.08
1056.07
1056.6
1056.6
1056.08
1056.09
1056.61
1056.62
1055.69
1055.4
1055.71
1055.44
1055.71
1055.76
1055.53
1056.04
1056.05
1056.57
1056.57
1056.06
1056.08
1056.59
1056.61
1055.64
1055.4
1055.67
1055.45
1055.69
1055.76
1055.55
1056.03
1056.04
1056.56
1056.55
1056.07
1056.1
1056.59
1056.62
1055.67
1055.5
1055.7
1055.55
1055.75
1055.81
1055.63
1056.16
1056.17
1056.68
1056.67
1056.21
1056.24
1056.71
1056.74
1055.83
1055.73
1055.87
1055.78
1055.92
1056
1055.86
1056.42
1056.43
1056.94
1056.92
1056.48
1056.53
1056.97
1057
1056.12
1056.07
1056.16
1056.1
1056.23
1056.31
1056.17
1056.9
1056.92
1057.41
1057.39
1056.96
1057.01
1057.44
1057.46
1056.61
1056.5
1056.65
1056.54
1056.7
1056.77
1056.61
1062.12
1061.99
1061.74
1061.54
1061.19
1060.99
1060.42
1060.25
1060.55
1060.36
1061.16
1060.97
1061.6
1061.41
1061.95
1061.82
1061.04
1060.78
1060.68
1060.32
1060.1
1059.76
1059.78
1059.35
1062.6
1063.4
1062.47
1063.21
1062.26
1063.02
1062.03
1062.75
1061.49
1061.9
1061.12
1061.64
1062.57
1062.13
1060.24
1059.59
1059.89
1059.41
1059.39
1058.85
1058.97
1058.56
1061.05
1060.37
1060.66
1060.15
1061.68
1061.03
1064.32
1064.86
1063.94
1064.5
1063.94
1064.61
1063.49
1064.1
1063.39
1064.31
1062.71
1063.56
1062.19
1063.02
1061.6
1062.45
1060.86
1060.74
1060.29
1060.24
1059.61
1059.46
1059.17
1059.02
1061.37
1061.55
1062.04
1062.08
1059.82
1059.83
1059.39
1059.48
1058.77
1058.64
1058.39
1058.33
1060.83
1061.1
1060.34
1060.74
1062.43
1063.45
1062.84
1064
1063.16
1064.21
1063.4
1064.61
1061.83
1062.82
1062.37
1063.51
1061.3
1062.28
1062.01
1063.12
1065.61
1066.8
1065.8
1066.99
1065.25
1066.35
1065.61
1066.74
1064.66
1065.5
1065.29
1066.22
1061.66
1060.18
1063
1064.01
1065.09
1060.38
1061.94
1063.53
1064.61
1065.79
1060.02
1061.41
1062.76
1064.03
1065.27
1067.9
1068.42
1068.52
1068.98
1067.33
1067.93
1068.14
1068.64
1066.37
1067.04
1067.5
1068.1
1060.7
1061.23
1062.41
1063.14
1063.98
1064.74
1065.23
1066
1066.9
1067.67
1060.26
1060.68
1061.81
1062.58
1063.28
1064.16
1064.73
1065.69
1066.57
1067.59
1061.12
1061.99
1060.5
1061.27
1059.6
1059.83
1059.04
1059.16
1062.05
1063.08
1062.66
1063.76
1059.97
1060.74
1059.63
1060.37
1058.59
1058.7
1058.28
1058.35
1061.49
1062.55
1061.14
1062.18
1063.81
1065.07
1065.99
1067.54
1064.3
1065.63
1066.31
1067.83
1063.35
1064.58
1065.68
1067.2
1062.92
1064.16
1065.23
1066.67
1068.55
1068.75
1069.16
1068.67
1068.72
1069.09
1068.18
1068.43
1068.87
1068.39
1068.47
1068.87
1067.44
1067.79
1068.29
1067.98
1068.12
1068.57
1061.88
1062.63
1063.44
1063.92
1064.56
1065.27
1065.46
1066.01
1066.63
1066.57
1067.03
1067.61
1067.66
1067.87
1068.4
1061.28
1062.12
1063.03
1063.6
1064.48
1065.37
1065.19
1065.95
1066.75
1066.48
1067.03
1067.73
1067.65
1067.92
1068.54
1058.42
1058.15
1058.19
1057.84
1059.18
1058.84
1058.9
1058.49
1058.24
1057.66
1058.18
1057.64
1058.08
1057.56
1057.96
1057.47
1057.59
1057.81
1057.45
1057.71
1057.46
1057.28
1057.57
1057.26
1058.16
1057.81
1057.44
1057.15
1057.23
1056.95
1057.17
1056.88
1057.07
1056.54
1057.17
1056.67
1057
1056.46
1057.02
1056.52
1056.94
1056.35
1056.82
1056.27
1056.73
1056.24
1056.48
1056.07
1057.78
1057.54
1057.48
1057.2
1058.58
1058.37
1058.22
1057.98
1056.96
1056.63
1057.22
1056.93
1057.18
1056.91
1056.88
1056.66
1057.87
1057.66
1057.54
1057.37
1056.7
1056.38
1056.42
1056.15
1056.52
1056.04
1056.25
1055.96
1056.73
1056.23
1056.51
1056.17
1056.31
1055.88
1056.03
1055.77
1056.07
1055.71
1055.83
1055.61
1057.07
1057.3
1056.59
1056.83
1057.06
1057.31
1056.56
1056.81
1057.06
1057.29
1056.51
1056.74
1057.99
1058.93
1057.4
1056.94
1056.44
1059.11
1058.18
1057.62
1057.17
1056.65
1058.76
1057.85
1057.2
1056.76
1056.39
1057.71
1058.29
1057.26
1057.82
1057.68
1058.23
1057.19
1057.73
1057.61
1058.13
1057.07
1057.57
1059.34
1059.78
1058.36
1058.8
1057.79
1058.25
1057.36
1057.83
1056.87
1057.34
1058.9
1059.15
1057.97
1058.22
1057.34
1057.64
1056.93
1057.3
1056.6
1057.08
1057.47
1057.55
1057.13
1057.1
1058.32
1058.37
1057.91
1057.82
1056.62
1056.72
1056.92
1057.1
1056.87
1056.76
1056.61
1056.48
1057.58
1057.42
1057.3
1057.1
1056.39
1056.42
1056.16
1056.17
1056.31
1056.54
1056.15
1056.53
1056.58
1056.88
1056.36
1056.79
1056.09
1056.26
1055.96
1056.3
1055.9
1056.05
1055.8
1056.09
1059.07
1059.85
1060.59
1058.79
1059.67
1060.41
1058.97
1059.76
1060.51
1058.66
1059.55
1060.32
1058.82
1059.59
1060.36
1058.46
1059.39
1060.21
1060.37
1061.12
1061.93
1059.41
1060.19
1061.01
1058.87
1059.68
1060.52
1058.49
1059.3
1060.11
1058.24
1059.22
1060.11
1059.62
1060.42
1061.34
1058.71
1059.54
1060.46
1058.21
1059.09
1060.03
1057.98
1058.9
1059.86
1058.02
1059.04
1060.02
1056.31
1056.61
1057.48
1059.1
1056.45
1056.79
1057.68
1059.32
1056.24
1056.56
1057.43
1059.06
1056.33
1056.69
1057.59
1059.23
1056.16
1056.5
1057.33
1058.91
1056.12
1056.51
1057.4
1059.02
1056.15
1056.58
1057.53
1059.19
1056.06
1056.54
1057.54
1059.21
1055.97
1056.37
1057.24
1058.85
1055.99
1056.43
1057.23
1058.67
1056.1
1056.47
1057.25
1058.74
1056.15
1056.54
1057.28
1058.63
1055.85
1056.31
1057.24
1058.91
1055.86
1056.34
1057.18
1058.66
1055.74
1056.24
1057.21
1058.86
1055.74
1056.26
1057.13
1058.6
1056.33
1056.6
1057.38
1058.91
1056.53
1056.75
1057.42
1058.75
1056.31
1056.59
1057.36
1058.88
1056.52
1056.76
1057.42
1058.74
1056.29
1056.58
1057.33
1058.8
1056.48
1056.74
1057.41
1058.71
1056.28
1056.6
1057.31
1058.7
1056.44
1056.73
1057.39
1058.66
1056.3
1056.65
1057.33
1058.59
1056.84
1057.03
1057.63
1058.57
1057.2
1057.36
1057.97
1058.86
1056.81
1057.01
1057.61
1058.56
1057.16
1057.34
1057.96
1058.85
1056.74
1056.97
1057.59
1058.54
1057.09
1057.3
1057.94
1058.83
1056.63
1056.92
1057.55
1058.5
1056.99
1057.26
1057.91
1058.81
1056.5
1056.84
1057.5
1058.46
1056.88
1057.2
1057.88
1058.79
1056.25
1056.7
1057.43
1058.43
1056.59
1057.03
1057.78
1058.72
1056.37
1056.77
1057.46
1058.45
1056.73
1057.12
1057.83
1058.75
1056.13
1056.63
1057.39
1058.41
1056.45
1056.95
1057.73
1058.68
1056.03
1056.56
1057.35
1058.38
1056.33
1056.87
1057.68
1058.64
1061.58
1063.6
1065.32
1066.73
1067.82
1061.71
1063.7
1065.42
1066.83
1067.92
1061.57
1063.59
1065.31
1066.72
1067.82
1061.69
1063.69
1065.41
1066.82
1067.91
1061.54
1063.58
1065.31
1066.72
1067.81
1061.6
1063.61
1065.33
1066.75
1067.84
1061.65
1063.66
1065.39
1066.8
1067.9
1061.62
1063.64
1065.37
1066.79
1067.88
1061.52
1063.57
1065.3
1066.71
1067.81
1061.63
1063.72
1065.46
1066.87
1067.96
1061.55
1063.6
1065.34
1066.75
1067.84
1061.66
1063.75
1065.49
1066.9
1067.99
1061.52
1063.57
1065.3
1066.72
1067.81
1061.64
1063.73
1065.48
1066.89
1067.98
1061.49
1063.55
1065.29
1066.71
1067.8
1061.63
1063.74
1065.48
1066.9
1067.99
1061.6
1063.64
1065.37
1066.78
1067.87
1061.74
1063.82
1065.55
1066.96
1068.05
1061.59
1063.65
1065.38
1066.79
1067.88
1061.74
1063.82
1065.56
1066.96
1068.05
1061.6
1063.66
1065.4
1066.81
1067.9
1061.74
1063.83
1065.57
1066.98
1068.07
1061.64
1063.73
1065.47
1066.88
1067.97
1061.77
1063.86
1065.6
1067.01
1068.1
1061.73
1063.83
1065.56
1066.97
1068.07
1071.09
1071.44
1070.94
1071.29
1070.66
1071.05
1070.32
1070.77
1069.97
1070.5
1069.44
1070.06
1069.72
1070.31
1069.17
1069.76
1068.89
1069.43
1074.95
1079.19
1082.78
1085.58
1087.5
1074.88
1079.16
1082.78
1085.6
1087.55
1074.88
1079.15
1082.75
1085.56
1087.48
1074.82
1079.13
1082.76
1085.6
1087.54
1074.74
1079.08
1082.7
1085.52
1087.45
1074.69
1079.06
1082.71
1085.56
1087.51
1074.56
1078.97
1082.63
1085.47
1087.4
1074.52
1078.96
1082.64
1085.51
1087.47
1074.35
1078.83
1082.53
1085.39
1087.34
1074.34
1078.84
1082.56
1085.45
1087.41
1073.89
1078.49
1082.27
1085.18
1087.15
1073.93