/*--------------------------------*- C++ -*----------------------------------*\
  =========                 |
  \\      /  F ield         | OpenFOAM: The Open Source CFD Toolbox
   \\    /   O peration     | Website:  https://openfoam.org
    \\  /    A nd           | Version:  13
     \\/     M anipulation  |
\*---------------------------------------------------------------------------*/
FoamFile
{
    format      ascii;
    class       volScalarField;
    location    "164.831886";
    object      T;
}
// * * * * * * * * * * * * * * * * * * * * * * * * * * * * * * * * * * * * * //

dimensions      [0 0 0 1 0 0 0];

internalField   nonuniform List<scalar> 
5712
(
1080.6
1080.43
1080.14
1079.87
1079.43
1079.16
1078.46
1078.24
1078.65
1078.39
1079.42
1079.16
1079.98
1079.73
1080.39
1080.21
1079.22
1078.87
1078.75
1078.27
1078.03
1077.58
1077.6
1077.03
1081.22
1082.23
1081.03
1081.97
1080.78
1081.74
1080.48
1081.4
1079.77
1080.31
1079.28
1079.96
1081.15
1080.57
1078.17
1077.31
1077.7
1077.06
1077.09
1076.37
1076.53
1075.98
1079.19
1078.3
1078.67
1078
1080
1079.14
1083.38
1084.07
1082.9
1083.62
1082.89
1083.76
1082.33
1083.12
1082.18
1083.35
1081.31
1082.4
1080.64
1081.71
1079.87
1080.96
1078.96
1078.8
1078.21
1078.14
1077.39
1077.19
1076.79
1076.59
1079.58
1079.78
1080.45
1080.49
1077.58
1077.59
1077.01
1077.13
1076.26
1076.1
1075.75
1075.67
1078.86
1079.2
1078.23
1078.72
1080.92
1082.23
1081.42
1082.89
1081.86
1083.2
1082.16
1083.68
1080.14
1081.42
1080.81
1082.25
1079.45
1080.71
1080.33
1081.75
1085.02
1086.52
1085.27
1086.76
1084.57
1085.97
1085.02
1086.45
1083.8
1084.88
1084.6
1085.77
1080.01
1078.15
1081.69
1082.96
1084.33
1078.42
1080.38
1082.39
1083.74
1085.22
1077.93
1079.68
1081.37
1082.97
1084.54
1087.91
1088.6
1088.67
1089.28
1087.21
1088
1088.2
1088.85
1085.99
1086.87
1087.38
1088.17
1078.85
1079.57
1081
1081.97
1082.97
1083.98
1084.54
1085.54
1086.62
1087.62
1078.26
1078.84
1080.21
1081.23
1082.05
1083.2
1083.87
1085.11
1086.17
1087.47
1079.3
1080.44
1078.48
1079.49
1077.38
1077.71
1076.64
1076.84
1080.43
1081.76
1081.23
1082.65
1077.78
1078.8
1077.33
1078.3
1076.05
1076.23
1075.63
1075.76
1079.7
1081.06
1079.24
1080.58
1082.64
1084.26
1085.38
1087.33
1083.29
1084.98
1085.81
1087.73
1082.05
1083.61
1084.97
1086.89
1081.49
1083.07
1084.38
1086.2
1088.81
1089.11
1089.68
1088.95
1089.07
1089.59
1088.36
1088.74
1089.33
1088.61
1088.76
1089.32
1087.43
1087.93
1088.6
1088.09
1088.33
1088.95
1080.45
1081.46
1082.53
1083.01
1083.89
1084.84
1084.94
1085.7
1086.53
1086.32
1086.96
1087.75
1087.68
1088.01
1088.75
1079.66
1080.79
1082
1082.58
1083.76
1084.96
1084.57
1085.61
1086.68
1086.18
1086.96
1087.91
1087.66
1088.09
1088.94
1075.93
1075.57
1075.61
1075.14
1076.88
1076.43
1076.51
1075.95
1075.74
1075
1075.65
1074.96
1075.53
1074.87
1075.37
1074.75
1074.85
1075.16
1074.66
1075.02
1074.73
1074.47
1074.77
1074.35
1075.51
1075.03
1074.64
1074.24
1074.36
1073.97
1074.32
1073.92
1074.25
1073.6
1074.38
1073.76
1074.16
1073.48
1074.19
1073.56
1074.06
1073.33
1073.89
1073.22
1073.76
1073.17
1073.42
1072.93
1075.08
1074.77
1074.67
1074.31
1076.08
1075.81
1075.59
1075.29
1074.02
1073.6
1074.39
1074
1074.26
1073.92
1073.85
1073.57
1075.13
1074.85
1074.68
1074.46
1073.66
1073.25
1073.29
1072.94
1073.48
1072.9
1073.13
1072.79
1073.78
1073.15
1073.48
1073.08
1073.19
1072.68
1072.82
1072.54
1072.86
1072.44
1072.55
1072.32
1074.29
1074.61
1073.67
1074.01
1074.28
1074.62
1073.62
1073.97
1074.26
1074.57
1073.54
1073.86
1075.39
1076.58
1074.65
1074.07
1073.45
1076.82
1075.65
1074.96
1074.39
1073.73
1076.35
1075.2
1074.38
1073.82
1073.38
1075.17
1075.95
1074.58
1075.33
1075.13
1075.87
1074.48
1075.21
1075.01
1075.71
1074.31
1074.98
1077.14
1077.74
1075.9
1076.51
1075.19
1075.82
1074.65
1075.29
1074.03
1074.67
1076.55
1076.9
1075.37
1075.73
1074.57
1074.99
1074.06
1074.58
1073.67
1074.31
1074.7
1074.83
1074.23
1074.23
1075.77
1075.87
1075.21
1075.14
1073.6
1073.77
1074.01
1074.28
1073.87
1073.77
1073.53
1073.39
1074.78
1074.61
1074.39
1074.18
1073.28
1073.35
1072.97
1073.01
1073.22
1073.55
1073.05
1073.57
1073.59
1074.01
1073.33
1073.92
1072.92
1073.17
1072.8
1073.25
1072.66
1072.89
1072.58
1072.97
1077
1078.04
1079.03
1076.62
1077.8
1078.79
1076.86
1077.91
1078.92
1076.45
1077.63
1078.67
1076.64
1077.68
1078.7
1076.17
1077.41
1078.51
1078.54
1079.55
1080.63
1077.33
1078.38
1079.49
1076.66
1077.75
1078.88
1076.18
1077.27
1078.36
1075.86
1077.17
1078.37
1077.55
1078.64
1079.87
1076.4
1077.52
1078.76
1075.77
1076.95
1078.23
1075.49
1076.73
1078.02
1075.56
1076.93
1078.25
1073.33
1073.8
1075
1077.2
1073.53
1074.03
1075.27
1077.49
1073.25
1073.73
1074.94
1077.15
1073.37
1073.9
1075.16
1077.38
1073.13
1073.64
1074.8
1076.95
1073.08
1073.66
1074.89
1077.09
1073.12
1073.75
1075.07
1077.33
1072.99
1073.7
1075.08
1077.35
1072.87
1073.47
1074.68
1076.86
1072.9
1073.55
1074.66
1076.62
1073.06
1073.6
1074.69
1076.72
1073.11
1073.7
1074.73
1076.58
1072.71
1073.38
1074.68
1076.95
1072.72
1073.43
1074.6
1076.61
1072.56
1073.28
1074.63
1076.88
1072.56
1073.32
1074.52
1076.52
1073.37
1073.78
1074.88
1076.94
1073.65
1074
1074.93
1076.74
1073.34
1073.77
1074.85
1076.91
1073.63
1074
1074.93
1076.72
1073.31
1073.76
1074.81
1076.8
1073.57
1073.98
1074.91
1076.68
1073.3
1073.79
1074.78
1076.66
1073.52
1073.97
1074.89
1076.61
1073.32
1073.85
1074.8
1076.52
1074.07
1074.37
1075.21
1076.5
1074.55
1074.82
1075.68
1076.89
1074.02
1074.34
1075.19
1076.48
1074.5
1074.79
1075.66
1076.88
1073.92
1074.29
1075.16
1076.46
1074.4
1074.74
1075.64
1076.85
1073.78
1074.21
1075.1
1076.41
1074.27
1074.67
1075.6
1076.82
1073.6
1074.11
1075.03
1076.35
1074.11
1074.6
1075.55
1076.79
1073.25
1073.91
1074.94
1076.31
1073.71
1074.37
1075.41
1076.7
1073.42
1074.01
1074.99
1076.33
1073.91
1074.48
1075.48
1076.74
1073.1
1073.82
1074.89
1076.28
1073.53
1074.26
1075.34
1076.64
1072.95
1073.72
1074.82
1076.23
1073.36
1074.15
1075.27
1076.59
1080.53
1083.22
1085.51
1087.37
1088.8
1080.7
1083.36
1085.64
1087.5
1088.93
1080.51
1083.21
1085.5
1087.37
1088.8
1080.67
1083.34
1085.63
1087.49
1088.92
1080.48
1083.2
1085.49
1087.36
1088.79
1080.55
1083.24
1085.53
1087.39
1088.83
1080.62
1083.31
1085.6
1087.47
1088.9
1080.58
1083.28
1085.58
1087.45
1088.89
1080.45
1083.18
1085.48
1087.35
1088.79
1080.59
1083.38
1085.69
1087.56
1088.99
1080.48
1083.23
1085.53
1087.4
1088.83
1080.63
1083.43
1085.73
1087.6
1089.03
1080.45
1083.18
1085.49
1087.36
1088.79
1080.61
1083.4
1085.72
1087.58
1089.02
1080.41
1083.15
1085.47
1087.34
1088.78
1080.6
1083.4
1085.72
1087.59
1089.03
1080.55
1083.29
1085.58
1087.44
1088.87
1080.75
1083.52
1085.82
1087.68
1089.1
1080.55
1083.29
1085.59
1087.45
1088.88
1080.75
1083.52
1085.82
1087.68
1089.11
1080.55
1083.31
1085.61
1087.47
1088.91
1080.75
1083.54
1085.83
1087.69
1089.12
1080.61
1083.4
1085.7
1087.56
1089
1080.78
1083.58
1085.88
1087.74
1089.17
1080.73
1083.52
1085.83
1087.69
1089.12
1091.85
1092.28
1091.66
1092.1
1091.3
1091.79
1090.85
1091.42
1090.4
1091.07
1089.69
1090.46
1090.06
1090.81
1089.34
1090.08
1088.97
1089.64
1096.57
1101.72
1106.05
1109.42
1111.74
1096.49
1101.68
1106.06
1109.45
1111.81
1096.48
1101.67
1106.02
1109.4
1111.72
1096.41
1101.65
1106.03
1109.45
1111.79
1096.3
1101.58
1105.96
1109.35
1111.68
1096.24
1101.55
1105.97
1109.4
1111.76
1096.07
1101.44
1105.86
1109.28
1111.62
1096.03
1101.43
1105.88
1109.34
1111.7
1095.79
1101.26
1105.74
1109.19
1111.54
1095.79
1101.27
1105.78
1109.26
1111.63
1095.19
1100.82
1105.41
1108.93
1111.31
1095.25
1100.88
1105.49
1109.02
1111.42
1095.49
1101.04
1105.58
1109.07
1111.43
1095.54
1101.09
1105.65
1109.16
1111.54
1094.89
1100.59
1105.23
1108.79
1111.18
1094.93
1100.63
1105.29
1108.86
1111.28
1094.59
1100.35
1105.05
1108.63
1111.04
1094.58
1100.37
1105.08
1108.69
1111.13
1074.84
1075.51
1076.1
1075.33
1076.35
1076.24
1076.21
1076.07
1076.43
1076.23
1077.33
1077.1
1077.81
1077.55
1077.13
1076.92
1076.87
1076.72
1076.82
1076.7
1075.37
1075.2
1077.27
1078.09
1078.34
1078.42
1077.67
1077.27
1078.21
1077.12
1079.03
1080.25
1077.34
1077.68
1078.63
1077.6
1078.02
1078.1
1076.5
1076.43
1076.96
1076.78
1076.54
1076.34
1076.57
1076.87
1077.93
1077.73
1077.34
1077.14
1075.7
1075.45
1075.9
1075.7
1076.01
1076.07
1076.64
1077.35
1076.62
1074.14
1073.51
1073.25
1073.29
1073.64
1074.29
1073.77
1073.54
1073.63
1074.08
1076.65
1076.37
1076.34
1076.59
1077.12
1077.49
1077.23
1077.23
1077.5
1078.04
1077.74
1077.47
1077.46
1077.71
1078.25
1077.83
1077.57
1077.57
1077.83
1078.37
1077.06
1076.79
1076.77
1077.02
1077.55
1075.93
1075.12
1074.69
1074.61
1074.86
1076.78
1075.91
1075.46
1075.37
1075.66
1076.16
1075.55
1075.23
1075.25
1075.67
1077.71
1076.87
1076.45
1076.41
1076.76
1078.96
1078.1
1077.68
1077.63
1077.99
1076.59
1076.15
1075.98
1076.11
1076.59
1076.8
1076.25
1075.98
1076.04
1076.48
1077.78
1077.25
1076.99
1077.07
1077.51
1076.9
1076.51
1076.38
1076.55
1077.05
1077.27
1076.84
1076.67
1076.81
1077.28
1077.41
1077.03
1076.92
1077.1
1077.59
1075.26
1074.57
1074.22
1074.2
1074.5
1075.59
1075.08
1074.84
1074.92
1075.37
1076.24
1075.84
1075.7
1075.87
1076.36
1076.09
1075.73
1075.63
1075.81
1076.32
1075.8
1075.38
1075.22
1075.37
1075.85
1075.64
1075.27
1075.15
1075.33
1075.83
1075.92
1075.6
1075.53
1075.75
1076.27
1076.23
1075.91
1075.84
1076.06
1076.58
1077.29
1076.97
1076.91
1077.13
1077.65
1077.11
1076.82
1076.78
1077.02
1077.54
1076.67
1076.32
1076.22
1076.42
1076.92
1076.49
1076.16
1076.09
1076.31
1076.83
1074.51
1073.87
1073.58
1073.6
1073.92
1074.6
1074.1
1073.89
1074
1074.46
1074.91
1074.34
1074.06
1074.1
1074.47
1074.93
1074.5
1074.34
1074.48
1074.96
1075.29
1074.89
1074.76
1074.93
1075.42
1075.25
1074.76
1074.53
1074.63
1075.08
1075.98
1075.65
1075.58
1075.79
1076.31
1076.73
1076.43
1076.39
1076.63
1077.16
1075.95
1075.6
1075.5
1075.7
1076.21
1075.25
1075.62
1075.28
1075.7
1074.35
1074.79
1074.33
1074.72
1075.31
1075.36
1075.71
1075.63
1074.36
1074.39
1074.77
1074.65
1076.2
1077.13
1076.53
1077.42
1076.2
1077.04
1076.6
1077.42
1076.61
1076.26
1076.42
1076.18
1076.92
1077.27
1076.21
1076.62
1076.02
1076.48
1075.29
1075.73
1075.03
1075.46
1077.09
1077.54
1076.82
1077.34
1077.76
1078.31
1077.98
1078.71
1078.23
1078.94
1077.92
1078.79
1078.25
1079.03
1077.77
1078.96
1077.99
1079.05
1078.45
1079.53
1079.08
1080.18
1075.65
1075.89
1075.85
1076.12
1074.47
1074.55
1074.68
1074.75
1076.97
1077.65
1076.8
1077.42
1076.15
1076.39
1076.54
1076.73
1074.97
1075
1075.34
1075.3
1077.28
1077.94
1077.71
1078.3
1078.13
1079.45
1079.24
1080.74
1078.02
1079.44
1079.04
1080.62
1078.43
1079.69
1079.52
1080.97
1078.89
1080.13
1079.9
1081.32
1078.04
1078.47
1078.86
1079.54
1077.97
1078.33
1078.98
1079.64
1077.85
1078.03
1079.2
1079.74
1075.61
1074.39
1076.8
1078.09
1079.72
1074.35
1075.51
1076.7
1078.05
1080
1074.45
1075.76
1077.27
1078.92
1080.63
1079.18
1079.49
1081.34
1081.98
1078.85
1079.16
1081.21
1081.85
1078.36
1078.62
1081.06
1081.7
1074.37
1074.54
1075.61
1075.81
1076.9
1077.11
1078.46
1078.73
1081.26
1081.94
1074.45
1074.63
1075.9
1076.33
1077.54
1078.09
1079.45
1080.1
1082.01
1082.84
1076.24
1076.98
1076.44
1077.2
1074.6
1074.67
1074.77
1074.8
1078.3
1079.38
1078.05
1079.08
1076.61
1077.49
1076.95
1077.88
1074.97
1075.05
1075.27
1075.38
1078.47
1079.69
1078.84
1080.14
1080.51
1081.92
1083.33
1085.11
1080.14
1081.5
1082.82
1084.48
1080.8
1082.26
1083.76
1085.6
1081.07
1082.62
1084
1085.8
1079.61
1079.89
1081.56
1081.6
1079.29
1079.6
1081.48
1081.49
1078.82
1079.26
1081.4
1081.43
1074.9
1075.54
1076.2
1076.8
1077.45
1077.97
1079.01
1079.49
1081.55
1081.54
1074.99
1075.68
1076.91
1077.54
1078.6
1079.07
1080.3
1080.51
1082.06
1081.92
1072.87
1072.84
1073.26
1073.09
1073.53
1073.51
1073.94
1073.77
1072.4
1072.07
1072.77
1072.43
1072.41
1072.1
1072.81
1072.48
1072.75
1072.41
1072.7
1072.44
1072.18
1072.5
1073.46
1073.89
1074.13
1074.55
1073.22
1073.71
1073.07
1073.51
1072.96
1073.41
1071.87
1071.75
1072.22
1072.08
1071.88
1071.73
1072.24
1072.06
1071.9
1071.69
1072.18
1071.92
1072.59
1072.29
1072.99
1072.62
1072.72
1072.7
1072.91
1072.83
1073.48
1073.47
1073.68
1073.63
1072.4
1072.29
1072.23
1072.19
1073.18
1073.02
1073.49
1073.27
1073.96
1073.86
1074.3
1074.13
1072.65
1072.46
1072.95
1072.67
1072.03
1071.79
1071.99
1071.86
1071.88
1071.69
1071.9
1071.81
1072.27
1071.97
1072.13
1071.97
1072.56
1072.2
1072.32
1072.13
1071.72
1071.78
1071.62
1071.72
1071.75
1071.82
1071.63
1071.74
1071.82
1071.87
1071.65
1071.75
1072.66
1073.4
1072.17
1071.85
1071.71
1073.4
1072.69
1072.22
1071.9
1071.77
1073.38
1072.65
1072.15
1071.88
1071.81
1072.03
1072.46
1072.02
1072.48
1072.02
1072.43
1071.99
1072.44
1072.03
1072.39
1071.96
1072.37
1073.41
1073.58
1072.7
1072.91
1072.26
1072.53
1072
1072.3
1071.94
1072.31
1073.34
1073.41
1072.62
1072.72
1072.17
1072.35
1071.95
1072.22
1071.95
1072.32
1072.6
1072.57
1072.75
1072.65
1073.35
1073.26
1073.54
1073.35
1072.29
1072.33
1072.16
1072.27
1072.99
1072.83
1073.23
1073.08
1073.79
1073.55
1074.06
1073.84
1072.49
1072.5
1072.71
1072.73
1072.07
1072.27
1072.09
1072.46
1071.97
1072.23
1072
1072.39
1072.22
1072.41
1072.22
1072.59
1072.42
1072.62
1072.39
1072.76
1072.98
1073.47
1073.15
1073.73
1072.92
1073.44
1073.1
1073.71
1072.85
1073.44
1073.02
1073.73
1073.93
1074.57
1073.3
1073.96
1072.94
1073.6
1072.76
1073.44
1072.96
1073.8
1073.7
1074.44
1073.06
1073.83
1072.78
1073.59
1072.76
1073.6
1073.04
1073.99
1072.06
1072.94
1074.41
1076.8
1072.36
1073.24
1074.73
1077.12
1072.04
1072.91
1074.39
1076.79
1072.33
1073.2
1074.67
1077.06
1072.02
1072.89
1074.29
1076.62
1072.2
1073.06
1074.48
1076.81
1072.53
1073.35
1074.8
1077.14
1072.78
1073.55
1074.97
1077.28
1072.1
1072.96
1074.32
1076.61
1072.25
1073.11
1074.34
1076.39
1072.06
1072.93
1074.23
1076.4
1072.22
1073.1
1074.31
1076.28
1072.23
1073.05
1074.45
1076.78
1072.32
1073.15
1074.4
1076.45
1072.39
1073.17
1074.55
1076.82
1072.43
1073.22
1074.45
1076.47
1071.96
1072.84
1074.23
1076.51
1072.09
1072.97
1074.23
1076.26
1071.98
1072.86
1074.23
1076.49
1072.12
1073
1074.25
1076.26
1072.02
1072.9
1074.22
1076.42
1072.16
1073.04
1074.28
1076.25
1072.11
1072.99
1074.24
1076.3
1072.21
1073.09
1074.3
1076.21
1072.24
1073.12
1074.3
1076.18
1072.42
1073.29
1074.48
1075.95
1072.84
1073.71
1074.92
1076.29
1072.41
1073.29
1074.48
1075.94
1072.84
1073.72
1074.93
1076.3
1072.42
1073.3
1074.49
1075.96
1072.85
1073.73
1074.94
1076.31
1072.43
1073.32
1074.49
1075.95
1072.86
1073.75
1074.96
1076.32
1072.45
1073.34
1074.5
1075.95
1072.88
1073.78
1074.98
1076.34
1072.59
1073.46
1074.62
1076.05
1072.97
1073.87
1075.06
1076.41
1072.51
1073.4
1074.56
1076
1072.91
1073.81
1075.01
1076.37
1072.69
1073.55
1074.69
1076.12
1073.08
1073.95
1075.12
1076.47
1072.81
1073.63
1074.76
1076.18
1073.21
1074.05
1075.2
1076.53
1080.3
1083.08
1085.42
1087.31
1088.76
1080.48
1083.22
1085.55
1087.44
1088.88
1080.3
1083.08
1085.42
1087.31
1088.76
1080.48
1083.22
1085.55
1087.44
1088.88
1080.29
1083.08
1085.42
1087.31
1088.75
1080.39
1083.14
1085.47
1087.35
1088.79
1080.51
1083.24
1085.56
1087.44
1088.88
1080.54
1083.25
1085.56
1087.44
1088.88
1080.31
1083.09
1085.43
1087.31
1088.76
1080.46
1083.3
1085.64
1087.52
1088.96
1080.31
1083.13
1085.47
1087.35
1088.8
1080.48
1083.33
1085.68
1087.56
1089
1080.35
1083.12
1085.45
1087.33
1088.77
1080.52
1083.35
1085.68
1087.56
1089
1080.38
1083.13
1085.45
1087.33
1088.77
1080.57
1083.39
1085.71
1087.59
1089.02
1080.31
1083.14
1085.49
1087.38
1088.82
1080.5
1083.37
1085.72
1087.61
1089.06
1080.32
1083.15
1085.5
1087.39
1088.83
1080.51
1083.38
1085.73
1087.62
1089.06
1080.35
1083.19
1085.53
1087.42
1088.87
1080.53
1083.4
1085.75
1087.64
1089.08
1080.43
1083.29
1085.63
1087.52
1088.96
1080.59
1083.46
1085.81
1087.69
1089.13
1080.56
1083.42
1085.77
1087.65
1089.09
1085.92
1086.42
1085.99
1086.5
1086.15
1086.67
1086.4
1086.91
1086.81
1087.25
1087.85
1088.42
1087.38
1087.88
1088.25
1088.88
1088.61
1089.25
1092.26
1098.66
1103.78
1107.62
1110.17
1092.12
1098.59
1103.77
1107.65
1110.24
1092.33
1098.7
1103.81
1107.65
1110.19
1092.2
1098.65
1103.8
1107.69
1110.26
1092.46
1098.79
1103.87
1107.7
1110.23
1092.33
1098.73
1103.86
1107.73
1110.3
1092.66
1098.93
1103.97
1107.77
1110.3
1092.51
1098.86
1103.95
1107.8
1110.36
1092.94
1099.12
1104.11
1107.88
1110.39
1092.75
1099.02
1104.07
1107.89
1110.44
1093.62
1099.6
1104.46
1108.16
1110.63
1093.5
1099.52
1104.43
1108.17
1110.67
1093.28
1099.34
1104.27
1108.01
1110.5
1093.1
1099.24
1104.22
1108.01
1110.54
1093.95
1099.85
1104.65
1108.31
1110.76
1093.89
1099.81
1104.65
1108.34
1110.82
1094.28
1100.1
1104.85
1108.47
1110.9
1094.24
1100.1
1104.87
1108.52
1110.97
1074.28
1074.92
1074.45
1073.78
1072.88
1073.26
1072.87
1073.3
1073.54
1073.98
1073.54
1073.92
1081.12
1081
1080.71
1080.24
1079.6
1078.84
1081.17
1081.05
1080.77
1080.33
1079.75
1079.07
1081.42
1081.87
1081.29
1081.71
1080.95
1081.34
1080.42
1080.72
1079.71
1079.94
1078.88
1079.13
1078.02
1077.25
1076.58
1076.03
1075.61
1075.31
1078.35
1077.64
1077.01
1076.48
1076.06
1075.77
1080.58
1080.36
1080.4
1080.69
1081.24
1080.46
1080.24
1080.27
1080.57
1081.11
1080.16
1079.94
1079.97
1080.26
1080.81
1079.68
1079.46
1079.49
1079.77
1080.32
1079.04
1078.81
1078.83
1079.11
1079.66
1078.27
1078.02
1078.03
1078.31
1078.86
1080.62
1080.4
1080.44
1080.73
1081.28
1080.51
1080.29
1080.32
1080.61
1081.16
1080.22
1080
1080.03
1080.32
1080.87
1079.78
1079.55
1079.58
1079.86
1080.41
1079.19
1078.96
1078.98
1079.26
1079.81
1078.5
1078.25
1078.26
1078.54
1079.08
1080.88
1080.66
1080.7
1080.99
1081.54
1081.32
1081.11
1081.15
1081.44
1081.98
1080.74
1080.52
1080.56
1080.85
1081.4
1081.17
1080.95
1080.99
1081.28
1081.83
1080.41
1080.19
1080.22
1080.51
1081.06
1080.79
1080.57
1080.61
1080.89
1081.44
1079.87
1079.64
1079.67
1079.96
1080.51
1080.17
1079.95
1079.98
1080.26
1080.81
1079.15
1078.91
1078.94
1079.22
1079.77
1079.38
1079.14
1079.16
1079.45
1079.99
1078.3
1078.06
1078.07
1078.35
1078.89
1078.55
1078.31
1078.32
1078.59
1079.13
1077.43
1077.17
1077.17
1077.43
1077.97
1076.63
1076.35
1076.32
1076.57
1077.1
1075.93
1075.61
1075.55
1075.78
1076.3
1075.34
1074.98
1074.88
1075.07
1075.58
1074.88
1074.47
1074.33
1074.5
1074.99
1074.54
1074.11
1073.95
1074.11
1074.59
1077.76
1077.5
1077.49
1077.76
1078.3
1077.03
1076.75
1076.73
1076.98
1077.51
1076.38
1076.07
1076.02
1076.25
1076.78
1075.81
1075.48
1075.4
1075.61
1076.13
1075.37
1075.01
1074.91
1075.11
1075.61
1075.07
1074.69
1074.58
1074.77
1075.27
1081.06
1080.82
1080.41
1079.82
1079.06
1078.17
1081.11
1080.88
1080.48
1079.92
1079.23
1078.44
1081.36
1081.8
1081.1
1081.52
1080.64
1081.01
1079.98
1080.26
1079.14
1079.34
1078.17
1078.36
1077.24
1076.38
1075.7
1075.25
1075.07
1075.12
1077.63
1076.88
1076.27
1075.85
1075.63
1075.62
1080.52
1080.3
1080.34
1080.63
1081.18
1080.28
1080.06
1080.1
1080.39
1080.94
1079.86
1079.64
1079.67
1079.97
1080.52
1079.26
1079.04
1079.07
1079.36
1079.92
1078.5
1078.27
1078.3
1078.59
1079.14
1077.6
1077.36
1077.38
1077.67
1078.22
1080.56
1080.35
1080.38
1080.68
1081.22
1080.33
1080.11
1080.15
1080.44
1080.99
1079.93
1079.71
1079.74
1080.03
1080.58
1079.36
1079.14
1079.17
1079.46
1080.01
1078.66
1078.43
1078.46
1078.75
1079.3
1077.87
1077.63
1077.65
1077.93
1078.48
1080.81
1080.6
1080.64
1080.93
1081.48
1081.26
1081.05
1081.08
1081.38
1081.92
1080.55
1080.34
1080.38
1080.67
1081.22
1080.97
1080.76
1080.8
1081.09
1081.64
1080.09
1079.88
1079.91
1080.21
1080.75
1080.46
1080.25
1080.28
1080.57
1081.12
1079.43
1079.21
1079.24
1079.53
1080.08
1079.71
1079.49
1079.52
1079.81
1080.36
1078.58
1078.35
1078.38
1078.67
1079.22
1078.78
1078.55
1078.58
1078.87
1079.42
1077.59
1077.36
1077.38
1077.66
1078.22
1077.79
1077.55
1077.57
1077.86
1078.41
1076.65
1076.4
1076.41
1076.68
1077.23
1075.78
1075.51
1075.5
1075.76
1076.31
1075.07
1074.77
1074.73
1074.98
1075.51
1074.58
1074.24
1074.16
1074.38
1074.9
1074.35
1073.96
1073.84
1074.02
1074.53
1074.35
1073.93
1073.78
1073.94
1074.43
1077.04
1076.79
1076.8
1077.08
1077.62
1076.28
1076.01
1076
1076.26
1076.81
1075.65
1075.35
1075.32
1075.57
1076.1
1075.19
1074.87
1074.81
1075.04
1075.56
1074.95
1074.6
1074.52
1074.72
1075.24
1074.92
1074.55
1074.44
1074.63
1075.14
1075.03
1074.94
1076.27
1077.23
1077.28
1077.51
1076.63
1074.46
1074.73
1074.58
1075.36
1075.28
1075.14
1075.76
1075.87
1076.24
1074.4
1074.48
1075.17
1075.25
1074.83
1074.95
1075.48
1075.6
1076.45
1076.47
1075.74
1075.74
1074.7
1074.72
1074.4
1074.67
1074.77
1074.47
1075.41
1076.18
1075.23
1073.82
1073.22
1072.98
1073.04
1073.4
1074.04
1073.53
1073.32
1073.42
1073.88
1075.67
1075.4
1075.4
1075.67
1076.21
1076.65
1076.4
1076.41
1076.69
1077.24
1076.69
1076.44
1076.44
1076.72
1077.27
1076.93
1076.68
1076.69
1076.97
1077.52
1076.04
1075.78
1075.78
1076.05
1076.6
1073.39
1072.85
1072.64
1072.72
1073.09
1073.69
1073.18
1072.99
1073.09
1073.5
1073.8
1073.36
1073.21
1073.36
1073.85
1074.43
1073.97
1073.82
1073.97
1074.43
1074.62
1074.28
1074.21
1074.43
1074.96
1074.42
1074.04
1073.93
1074.11
1074.62
1075.12
1074.81
1074.77
1075
1075.54
1075.22
1074.9
1074.84
1075.07
1075.6
1075.61
1075.31
1075.28
1075.52
1076.05
1073.35
1072.82
1072.62
1072.71
1073.09
1073.73
1073.33
1073.2
1073.37
1073.87
1074.52
1074.19
1074.14
1074.36
1074.89
1074.6
1074.29
1074.25
1074.49
1075.02
1074.15
1073.81
1073.73
1073.94
1074.46
1074.29
1073.96
1073.9
1074.13
1074.66
1074.85
1074.55
1074.52
1074.77
1075.3
1074.98
1074.7
1074.67
1074.93
1075.47
1075.85
1075.57
1075.55
1075.81
1076.36
1075.86
1075.6
1075.59
1075.86
1076.41
1075.11
1074.81
1074.78
1075.03
1075.57
1075.12
1074.83
1074.81
1075.06
1075.6
1073.57
1073.01
1072.78
1072.86
1073.24
1073.89
1073.43
1073.26
1073.4
1073.88
1073.5
1073.02
1072.83
1072.94
1073.37
1073.94
1073.55
1073.43
1073.61
1074.12
1074.08
1073.73
1073.65
1073.86
1074.38
1073.72
1073.31
1073.17
1073.33
1073.83
1074.78
1074.48
1074.45
1074.69
1075.23
1075.57
1075.3
1075.29
1075.56
1076.1
1074.59
1074.29
1074.24
1074.48
1075.02
1075.52
1075
1074.79
1074.87
1075.21
1075.89
1075.13
1075.17
1074.21
1074.19
1075.21
1075.3
1074.24
1074.29
1076.11
1077.15
1076.12
1077.05
1076.22
1076.17
1076.88
1075.1
1075.15
1074.17
1074.15
1075.2
1075.28
1074.21
1074.27
1076.17
1077.26
1076.17
1077.14
1076.26
1076.19
1076.96
1075.11
1075.16
1074.16
1074.13
1075.22
1075.3
1074.21
1074.28
1076.22
1077.54
1076.23
1077.38
1076.32
1076.24
1077.16
1075.3
1075.35
1074.33
1074.3
1075.41
1075.51
1074.38
1074.46
1076.48
1077.87
1076.47
1077.7
1076.55
1076.46
1077.44
1075.64
1075.69
1074.67
1074.64
1075.75
1075.86
1074.72
1074.8
1076.82
1078.13
1076.81
1077.99
1076.87
1076.81
1077.73
1076.24
1076.29
1075.29
1075.26
1076.33
1076.43
1075.34
1075.41
1077.36
1078.56
1077.34
1078.43
1077.39
1077.31
1078.17
1072.73
1072.73
1073.39
1073.39
1072.75
1072.76
1073.41
1073.43
1072.26
1071.91
1072.29
1071.96
1072.29
1072.36
1072.07
1072.69
1072.69
1073.35
1073.34
1072.72
1072.75
1073.38
1073.41
1072.2
1071.9
1072.23
1071.97
1072.27
1072.35
1072.09
1072.67
1072.68
1073.33
1073.31
1072.73
1072.77
1073.37
1073.42
1072.23
1072.04
1072.27
1072.1
1072.33
1072.42
1072.21
1072.84
1072.86
1073.5
1073.47
1072.91
1072.97
1073.55
1073.6
1072.44
1072.35
1072.49
1072.4
1072.57
1072.68
1072.51
1073.19
1073.22
1073.85
1073.82
1073.29
1073.37
1073.9
1073.95
1072.84
1072.8
1072.9
1072.85
1072.99
1073.1
1072.93
1073.85
1073.87
1074.49
1074.46
1073.94
1074.01
1074.53
1074.59
1073.5
1073.39
1073.55
1073.44
1073.63
1073.73
1073.53
1080.63
1080.47
1080.14
1079.87
1079.44
1079.17
1078.46
1078.24
1078.66
1078.4
1079.42
1079.16
1079.98
1079.74
1080.43
1080.25
1079.22
1078.87
1078.75
1078.27
1078.04
1077.59
1077.61
1077.03
1081.24
1082.24
1081.06
1082
1080.78
1081.75
1080.49
1081.4
1079.78
1080.31
1079.28
1079.96
1081.15
1080.58
1078.17
1077.31
1077.7
1077.06
1077.09
1076.37
1076.53
1075.98
1079.19
1078.3
1078.68
1078
1080
1079.14
1083.4
1084.09
1082.92
1083.64
1082.9
1083.76
1082.33
1083.12
1082.19
1083.36
1081.31
1082.4
1080.64
1081.71
1079.87
1080.96
1078.96
1078.8
1078.21
1078.14
1077.39
1077.19
1076.79
1076.6
1079.58
1079.78
1080.46
1080.49
1077.58
1077.59
1077.01
1077.13
1076.26
1076.1
1075.76
1075.67
1078.87
1079.2
1078.23
1078.72
1080.92
1082.23
1081.42
1082.89
1081.87
1083.21
1082.16
1083.68
1080.14
1081.42
1080.81
1082.25
1079.46
1080.71
1080.33
1081.75
1085.04
1086.54
1085.28
1086.77
1084.57
1085.97
1085.02
1086.45
1083.8
1084.88
1084.6
1085.78
1080.01
1078.16
1081.69
1082.96
1084.33
1078.42
1080.38
1082.39
1083.74
1085.22
1077.93
1079.68
1081.37
1082.97
1084.54
1087.94
1088.62
1088.68
1089.29
1087.21
1088
1088.2
1088.85
1085.99
1086.87
1087.39
1088.17
1078.85
1079.57
1081
1081.97
1082.97
1083.98
1084.54
1085.54
1086.62
1087.62
1078.26
1078.84
1080.21
1081.23
1082.05
1083.2
1083.87
1085.11
1086.17
1087.47
1079.3
1080.44
1078.48
1079.49
1077.38
1077.71
1076.65
1076.84
1080.43
1081.77
1081.23
1082.65
1077.78
1078.8
1077.33
1078.3
1076.05
1076.23
1075.63
1075.76
1079.7
1081.06
1079.25
1080.58
1082.64
1084.26
1085.38
1087.33
1083.29
1084.98
1085.81
1087.73
1082.05
1083.61
1084.97
1086.89
1081.49
1083.07
1084.38
1086.2
1088.83
1089.13
1089.69
1088.96
1089.08
1089.6
1088.36
1088.74
1089.33
1088.61
1088.77
1089.32
1087.43
1087.93
1088.6
1088.09
1088.33
1088.95
1080.46
1081.46
1082.53
1083.01
1083.89
1084.84
1084.94
1085.7
1086.53
1086.32
1086.96
1087.75
1087.68
1088.01
1088.75
1079.66
1080.79
1082
1082.58
1083.76
1084.96
1084.57
1085.61
1086.68
1086.18
1086.96
1087.91
1087.66
1088.09
1088.94
1075.93
1075.57
1075.61
1075.14
1076.88
1076.43
1076.51
1075.95
1075.76
1075.01
1075.67
1074.98
1075.53
1074.87
1075.37
1074.75
1074.86
1075.16
1074.66
1075.02
1074.73
1074.47
1074.77
1074.35
1075.51
1075.03
1074.64
1074.24
1074.36
1073.97
1074.32
1073.92
1074.26
1073.6
1074.39
1073.77
1074.16
1073.48
1074.19
1073.56
1074.06
1073.33
1073.89
1073.22
1073.76
1073.17
1073.42
1072.93
1075.09
1074.77
1074.67
1074.31
1076.08
1075.81
1075.59
1075.29
1074.02
1073.6
1074.39
1074
1074.26
1073.92
1073.85
1073.57
1075.13
1074.85
1074.68
1074.46
1073.66
1073.25
1073.29
1072.94
1073.48
1072.9
1073.13
1072.79
1073.78
1073.15
1073.48
1073.08
1073.19
1072.68
1072.82
1072.54
1072.86
1072.44
1072.55
1072.32
1074.29
1074.62
1073.67
1074.01
1074.28
1074.62
1073.62
1073.97
1074.26
1074.57
1073.54
1073.86
1075.39
1076.58
1074.65
1074.07
1073.45
1076.82
1075.65
1074.96
1074.39
1073.73
1076.35
1075.2
1074.38
1073.82
1073.38
1075.18
1075.95
1074.58
1075.33
1075.13
1075.87
1074.49
1075.21
1075.01
1075.71
1074.31
1074.98
1077.14
1077.74
1075.9
1076.51
1075.19
1075.82
1074.65
1075.29
1074.03
1074.67
1076.55
1076.91
1075.37
1075.73
1074.57
1074.99
1074.06
1074.58
1073.67
1074.31
1074.7
1074.83
1074.23
1074.23
1075.77
1075.87
1075.21
1075.14
1073.6
1073.77
1074.01
1074.28
1073.87
1073.77
1073.53
1073.39
1074.78
1074.61
1074.39
1074.18
1073.28
1073.35
1072.97
1073.02
1073.22
1073.55
1073.05
1073.57
1073.59
1074.01
1073.33
1073.93
1072.92
1073.17
1072.8
1073.25
1072.66
1072.89
1072.58
1072.97
1077
1078.05
1079.03
1076.62
1077.8
1078.79
1076.86
1077.91
1078.92
1076.45
1077.64
1078.67
1076.64
1077.68
1078.7
1076.17
1077.41
1078.51
1078.54
1079.55
1080.63
1077.33
1078.38
1079.49
1076.66
1077.75
1078.88
1076.18
1077.27
1078.36
1075.86
1077.17
1078.37
1077.55
1078.64
1079.87
1076.41
1077.52
1078.76
1075.77
1076.95
1078.23
1075.49
1076.73
1078.02
1075.56
1076.93
1078.25
1073.34
1073.8
1075
1077.2
1073.54
1074.04
1075.28
1077.49
1073.25
1073.73
1074.94
1077.15
1073.37
1073.9
1075.16
1077.38
1073.13
1073.64
1074.8
1076.95
1073.08
1073.66
1074.89
1077.09
1073.12
1073.75
1075.07
1077.33
1072.99
1073.7
1075.08
1077.35
1072.87
1073.47
1074.68
1076.86
1072.9
1073.55
1074.66
1076.62
1073.06
1073.6
1074.69
1076.72
1073.12
1073.7
1074.73
1076.58
1072.71
1073.38
1074.68
1076.94
1072.72
1073.43
1074.6
1076.61
1072.56
1073.28
1074.63
1076.88
1072.56
1073.32
1074.52
1076.52
1073.37
1073.78
1074.88
1076.95
1073.65
1074
1074.93
1076.74
1073.34
1073.77
1074.85
1076.91
1073.63
1074
1074.93
1076.72
1073.31
1073.76
1074.81
1076.8
1073.57
1073.98
1074.91
1076.68
1073.3
1073.79
1074.78
1076.66
1073.52
1073.97
1074.89
1076.61
1073.32
1073.85
1074.8
1076.52
1074.07
1074.37
1075.21
1076.5
1074.55
1074.81
1075.67
1076.89
1074.02
1074.34
1075.19
1076.48
1074.5
1074.79
1075.66
1076.88
1073.92
1074.29
1075.16
1076.46
1074.4
1074.74
1075.64
1076.85
1073.78
1074.21
1075.1
1076.41
1074.27
1074.67
1075.6
1076.82
1073.6
1074.11
1075.03
1076.35
1074.11
1074.6
1075.55
1076.79
1073.25
1073.91
1074.94
1076.31
1073.71
1074.37
1075.41
1076.7
1073.42
1074.01
1074.99
1076.33
1073.91
1074.48
1075.48
1076.74
1073.1
1073.82
1074.89
1076.28
1073.53
1074.26
1075.34
1076.64
1072.95
1073.72
1074.82
1076.23
1073.36
1074.15
1075.27
1076.59
1080.54
1083.22
1085.51
1087.37
1088.8
1080.71
1083.36
1085.64
1087.5
1088.93
1080.51
1083.21
1085.5
1087.36
1088.8
1080.67
1083.34
1085.62
1087.48
1088.92
1080.48
1083.2
1085.49
1087.36
1088.79
1080.55
1083.24
1085.53
1087.39
1088.83
1080.62
1083.31
1085.6
1087.47
1088.9
1080.58
1083.28
1085.58
1087.45
1088.89
1080.45
1083.18
1085.48
1087.35
1088.79
1080.59
1083.38
1085.69
1087.56
1088.99
1080.48
1083.23
1085.53
1087.4
1088.83
1080.63
1083.42
1085.73
1087.6
1089.03
1080.45
1083.18
1085.49
1087.36
1088.79
1080.61
1083.4
1085.71
1087.58
1089.02
1080.41
1083.15
1085.47
1087.34
1088.78
1080.6
1083.4
1085.72
1087.59
1089.03
1080.55
1083.28
1085.58
1087.44
1088.87
1080.75
1083.52
1085.82
1087.67
1089.1
1080.55
1083.29
1085.59
1087.45
1088.88
1080.75
1083.52
1085.82
1087.68
1089.11
1080.55
1083.31
1085.61
1087.47
1088.91
1080.75
1083.54
1085.83
1087.69
1089.12
1080.61
1083.4
1085.7
1087.56
1089
1080.78
1083.58
1085.88
1087.74
1089.17
1080.73
1083.52
1085.83
1087.69
1089.12
1091.86
1092.29
1091.66
1092.1
1091.3
1091.79
1090.85
1091.43
1090.4
1091.07
1089.69
1090.46
1090.06
1090.81
1089.34
1090.08
1088.97
1089.64
1096.57
1101.72
1106.05
1109.42
1111.74
1096.49
1101.68
1106.06
1109.45
1111.81
1096.48
1101.67
1106.02
1109.4
1111.72
1096.41
1101.65
1106.03
1109.45
1111.79
1096.3
1101.58
1105.96
1109.35
1111.68
1096.25
1101.55
1105.97
1109.4
1111.76
1096.07
1101.44
1105.86
1109.28
1111.62
1096.03
1101.43
1105.88
1109.34
1111.7
1095.79
1101.26
1105.74
1109.19
1111.54
1095.79
1101.28
1105.78
1109.26
1111.63
1095.19
1100.82
1105.41
1108.93
1111.31
1095.26
1100.88
1105.49
1109.02
1111.42
1095.49
1101.04
1105.58