/*--------------------------------*- C++ -*----------------------------------*\
  =========                 |
  \\      /  F ield         | OpenFOAM: The Open Source CFD Toolbox
   \\    /   O peration     | Website:  https://openfoam.org
    \\  /    A nd           | Version:  13
     \\/     M anipulation  |
\*---------------------------------------------------------------------------*/
FoamFile
{
    format      ascii;
    class       volScalarField;
    location    "59.831886";
    object      T;
}
// * * * * * * * * * * * * * * * * * * * * * * * * * * * * * * * * * * * * * //

dimensions      [0 0 0 1 0 0 0];

internalField   nonuniform List<scalar> 
5712
(
724.882
724.472
723.786
723.155
722.108
721.472
719.747
719.235
720.179
719.582
722.031
721.424
723.367
722.79
724.362
723.924
721.628
720.821
720.54
719.424
718.764
717.724
717.772
716.453
726.379
728.832
725.938
728.226
725.351
727.696
724.665
726.875
723.011
724.272
721.856
723.45
726.295
724.94
719.18
717.182
718.103
716.617
716.582
714.908
715.296
714.028
721.637
719.548
720.44
718.862
723.584
721.557
731.638
733.286
730.467
732.172
730.491
732.562
729.118
731.014
728.815
731.626
726.73
729.323
725.128
727.687
723.32
725.916
721.061
720.709
719.325
719.165
717.268
716.805
715.903
715.438
722.619
723.147
724.679
724.8
717.858
717.884
716.533
716.819
714.668
714.285
713.505
713.298
720.94
721.777
719.456
720.671
725.848
728.982
727.098
730.641
728.088
731.312
728.838
732.529
724.009
727.046
725.671
729.138
722.391
725.377
724.549
727.959
735.588
739.233
736.187
739.817
734.518
737.9
735.612
739.07
732.698
735.284
734.629
737.47
723.541
719.041
727.62
730.699
734.02
719.649
724.403
729.258
732.551
736.16
718.53
722.768
726.877
730.768
734.57
742.6
744.207
744.493
745.929
740.899
742.749
743.348
744.9
737.944
740.018
741.388
743.24
720.649
722.29
725.848
728.111
730.636
732.997
734.471
736.819
739.567
741.941
719.267
720.591
724.013
726.385
728.477
731.194
732.924
735.873
738.538
741.661
721.886
724.563
719.964
722.336
717.229
717.951
715.52
715.896
724.686
727.871
726.567
729.947
718.329
720.713
717.281
719.555
714.143
714.496
713.157
713.402
722.97
726.22
721.911
725.087
730.068
733.954
736.742
741.484
731.579
735.653
737.74
742.389
728.671
732.438
735.78
740.449
727.349
731.153
734.388
738.807
744.62
745.25
746.541
744.985
745.174
746.343
743.53
744.333
745.705
744.165
744.423
745.685
741.279
742.371
743.913
742.921
743.365
744.787
724.309
726.628
729.112
730.509
732.523
734.709
735.216
736.932
738.847
738.61
740.03
741.856
741.944
742.598
744.268
722.453
725.045
727.85
729.528
732.24
735.018
734.379
736.753
739.23
738.304
740.045
742.219
741.91
742.782
744.711
713.676
712.84
712.941
711.869
715.972
714.936
715.124
713.846
713.139
711.362
712.937
711.281
712.657
711.068
712.3
710.808
711.131
711.832
710.694
711.515
710.773
710.195
711.037
710.068
712.826
711.739
710.658
709.747
710.02
709.145
709.859
708.964
709.578
708.006
709.875
708.389
709.371
707.746
709.449
707.94
709.186
707.405
708.802
707.166
708.511
707.061
707.745
706.538
711.705
710.964
710.76
709.923
714.118
713.47
712.999
712.293
709.191
708.197
710.014
709.107
709.831
709.021
708.903
708.224
711.937
711.278
710.907
710.384
708.378
707.402
707.534
706.697
707.873
706.452
707.054
706.192
708.534
707.019
707.848
706.858
707.214
705.948
706.356
705.616
706.482
705.407
705.742
705.117
709.602
710.326
708.156
708.921
709.595
710.363
708.055
708.85
709.583
710.277
707.892
708.607
712.377
715.228
710.586
709.185
707.687
715.782
712.956
711.273
709.897
708.32
714.709
711.936
709.953
708.615
707.516
711.604
713.376
710.219
711.941
711.518
713.206
710.017
711.671
711.282
712.875
709.627
711.17
716.501
717.852
713.508
714.884
711.793
713.21
710.492
711.937
709.011
710.467
715.146
715.922
712.304
713.088
710.379
711.326
709.139
710.31
708.182
709.649
710.768
711.006
709.7
709.631
713.355
713.507
712.066
711.821
708.173
708.494
709.09
709.665
708.881
708.573
708.089
707.698
711.065
710.59
710.172
709.597
707.439
707.549
706.732
706.769
707.222
707.951
706.765
707.941
708.061
709.01
707.42
708.763
706.537
707.076
706.199
707.222
705.961
706.422
705.695
706.583
715.793
718.196
720.464
714.918
717.633
719.907
715.473
717.906
720.226
714.528
717.262
719.636
715.004
717.391
719.747
713.895
716.759
719.293
719.69
721.998
724.502
716.767
719.163
721.722
715.128
717.63
720.233
713.974
716.468
718.984
713.205
716.218
718.98
717.372
719.866
722.701
714.616
717.162
720.008
713.085
715.787
718.718
712.387
715.235
718.193
712.516
715.676
718.713
707.331
708.344
711.075
716.141
707.779
708.868
711.694
716.809
707.137
708.19
710.93
716.045
707.426
708.586
711.439
716.568
706.881
707.994
710.619
715.581
706.774
708.025
710.829
715.898
706.857
708.251
711.256
716.453
706.573
708.132
711.26
716.495
706.281
707.612
710.35
715.372
706.365
707.792
710.295
714.812
706.706
707.899
710.372
715.032
706.842
708.124
710.449
714.704
705.936
707.405
710.359
715.566
705.95
707.504
710.156
714.778
705.583
707.187
710.245
715.426
705.588
707.254
709.985
714.586
707.408
708.307
710.789
715.555
708.037
708.793
710.909
715.071
707.354
708.282
710.729
715.466
708.011
708.802
710.906
715.03
707.277
708.263
710.631
715.23
707.88
708.755
710.864
714.938
707.255
708.319
710.568
714.896
707.756
708.723
710.806
714.766
707.317
708.466
710.612
714.575
709.011
709.64
711.543
714.504
710.106
710.656
712.6
715.371
708.89
709.574
711.492
714.448
709.98
710.594
712.563
715.345
708.671
709.459
711.422
714.399
709.76
710.488
712.507
715.296
708.353
709.284
711.291
714.282
709.461
710.335
712.415
715.228
707.94
709.053
711.132
714.153
709.11
710.158
712.317
715.16
707.147
708.606
710.916
714.053
708.201
709.636
711.99
714.937
707.537
708.831
711.029
714.112
708.654
709.899
712.155
715.045
706.796
708.396
710.811
714.005
707.783
709.389
711.84
714.82
706.459
708.179
710.666
713.887
707.401
709.148
711.683
714.694
723.905
730.188
735.558
739.943
743.331
724.294
730.509
735.866
740.246
743.632
723.861
730.165
735.544
739.932
743.321
724.226
730.464
735.831
740.216
743.604
723.775
730.127
735.519
739.912
743.304
723.946
730.222
735.604
739.997
743.389
724.102
730.386
735.775
740.173
743.566
724.012
730.32
735.725
740.132
743.53
723.721
730.096
735.5
739.899
743.293
724.039
730.559
735.983
740.383
743.775
723.791
730.208
735.614
740.01
743.402
724.139
730.665
736.085
740.481
743.871
723.716
730.097
735.509
739.913
743.309
724.075
730.609
736.041
740.446
743.84
723.622
730.033
735.462
739.875
743.275
724.054
730.617
736.063
740.475
743.872
723.949
730.335
735.721
740.106
743.493
724.41
730.891
736.283
740.665
744.048
723.94
730.346
735.737
740.125
743.512
724.399
730.892
736.289
740.672
744.056
723.948
730.394
735.795
740.186
743.575
724.404
730.919
736.322
740.708
744.093
724.086
730.595
736.008
740.401
743.791
724.483
731.016
736.426
740.815
744.201
724.362
730.895
736.31
740.703
744.09
752.368
753.427
751.906
752.986
751.063
752.261
749.998
751.396
748.947
750.559
747.31
749.181
748.152
749.977
746.473
748.279
745.595
747.241
764.147
777.109
788.066
796.642
802.54
763.953
777.007
788.089
796.721
802.717
763.94
777
787.996
796.59
802.495
763.769
776.93
788.02
796.703
802.685
763.523
776.765
787.841
796.473
802.393
763.366
776.705
787.872
796.591
802.589
762.961
776.43
787.614
796.301
802.245
762.853
776.398
787.665
796.435
802.456
762.309
776.004
787.315
796.074
802.049
762.3
776.037
787.411
796.24
802.286
760.899
774.951
786.519
795.435
801.477
761.036
775.098
786.701
795.661
801.754
761.606
775.491
786.937
795.776
801.787
761.704
775.607
787.097
795.99
802.059
760.186
774.395
786.081
795.072
801.148
760.277
774.504
786.229
795.267
801.393
759.454
773.815
785.621
794.692
800.807
759.44
773.864
785.709
794.836
801.016
711.199
712.838
714.195
712.321
714.587
714.346
714.285
713.96
714.844
714.394
717.024
716.492
718.137
717.538
716.494
715.996
715.841
715.5
715.698
715.434
712.352
711.847
716.282
718.107
718.732
718.882
717.205
716.78
718.955
716.283
720.797
723.617
716.659
717.54
719.704
717.202
718.208
718.333
714.937
714.643
715.739
715.286
714.789
714.296
714.757
715.448
717.871
717.382
716.559
716.075
713.101
712.379
713.479
712.876
713.553
713.802
714.927
716.506
714.917
709.431
707.92
707.262
707.307
708.079
709.703
708.458
707.896
708.074
709.078
714.866
714.202
714.13
714.689
715.91
716.744
716.139
716.126
716.73
717.972
717.348
716.717
716.675
717.255
718.483
717.521
716.919
716.906
717.509
718.75
715.805
715.158
715.102
715.672
716.898
713.583
711.631
710.595
710.359
710.902
715.549
713.445
712.349
712.111
712.75
714.038
712.582
711.796
711.811
712.733
717.654
715.636
714.624
714.478
715.275
720.545
718.478
717.45
717.297
718.097
714.9
713.865
713.439
713.726
714.801
715.478
714.164
713.498
713.61
714.591
717.708
716.444
715.818
715.959
716.954
715.568
714.658
714.345
714.716
715.835
716.468
715.446
715.032
715.328
716.405
716.732
715.852
715.566
715.957
717.084
712.022
710.361
709.508
709.398
710.059
712.671
711.454
710.866
711.024
712.025
714.075
713.135
712.795
713.146
714.256
713.7
712.846
712.588
713.002
714.145
713.07
712.082
711.698
712.015
713.106
712.678
711.793
711.507
711.899
713.032
713.254
712.495
712.33
712.818
714.002
713.956
713.205
713.046
713.537
714.722
716.393
715.653
715.501
715.995
717.178
715.948
715.26
715.162
715.698
716.905
715.005
714.18
713.949
714.382
715.535
714.571
713.806
713.631
714.11
715.287
710.271
708.722
708.011
708.012
708.735
710.376
709.202
708.683
708.894
709.921
711.156
709.786
709.1
709.149
709.988
711.104
710.086
709.684
709.986
711.07
711.883
710.952
710.624
710.984
712.099
711.873
710.704
710.155
710.339
711.352
713.41
712.634
712.451
712.924
714.101
715.066
714.374
714.272
714.807
716.014
713.355
712.528
712.295
712.73
713.885
712.444
713.296
712.516
713.461
710.286
711.276
710.247
711.123
712.596
712.709
713.509
713.329
710.313
710.363
711.229
710.959
714.714
716.929
715.474
717.6
714.725
716.734
715.622
717.591
715.669
714.872
715.208
714.683
716.433
717.232
714.631
715.589
714.212
715.277
712.427
713.441
711.833
712.825
716.757
717.791
716.127
717.325
718.367
719.628
718.947
720.681
719.519
721.166
718.812
720.881
719.562
721.389
718.463
721.286
718.968
721.464
720.019
722.577
721.482
724.097
713.401
713.962
713.838
714.483
710.55
710.726
711.02
711.174
716.535
718.18
716.149
717.635
714.541
715.112
715.451
715.894
711.705
711.748
712.541
712.448
717.249
718.838
718.242
719.693
719.327
722.458
722.007
725.581
719.082
722.466
721.544
725.318
720.013
723.005
722.647
726.118
721.069
724.021
723.541
726.95
719.134
720.203
721.074
722.758
718.979
719.853
721.374
722.987
718.682
719.151
721.91
723.24
713.292
710.345
716.176
719.259
723.159
710.25
713.053
715.935
719.187
723.858
710.49
713.656
717.296
721.27
725.363
721.914
722.65
727.146
728.654
721.115
721.854
726.828
728.334
719.928
720.532
726.439
727.956
710.298
710.677
713.29
713.754
716.412
716.887
720.173
720.797
726.925
728.551
710.487
710.868
713.972
714.959
717.935
719.208
722.53
724.072
728.737
730.721
714.775
716.509
715.229
717.004
710.806
710.908
711.189
711.181
719.711
722.296
719.14
721.588
715.614
717.661
716.39
718.577
711.651
711.758
712.336
712.516
720.108
723.017
720.973
724.06
725.072
728.451
731.907
736.217
724.191
727.464
730.681
734.709
725.739
729.243
732.94
737.387
726.359
730.098
733.483
737.849
722.88
723.488
727.562
727.592
722.114
722.79
727.36
727.319
720.973
721.971
727.152
727.154
711.477
712.913
714.629
715.979
717.651
718.813
721.405
722.49
727.506
727.4
711.655
713.194
716.296
717.706
720.375
721.406
724.483
724.884
728.702
728.267
706.695
706.627
707.582
707.203
708.305
708.238
709.242
708.844
705.554
704.73
706.389
705.535
705.583
704.819
706.488
705.666
706.339
705.568
706.235
705.656
704.994
705.722
708.032
709.022
709.665
710.635
707.42
708.55
707.087
708.087
706.769
707.797
704.222
703.869
705.004
704.606
704.24
703.807
705.059
704.555
704.314
703.733
704.932
704.257
705.874
705.093
706.778
705.82
706.333
706.255
706.752
706.547
708.158
708.113
708.61
708.486
705.506
705.228
705.127
704.997
707.364
706.986
708.091
707.539
709.257
708.996
710.032
709.617
706.082
705.604
706.769
706.092
704.604
703.948
704.46
704.095
704.265
703.732
704.274
703.97
705.146
704.358
704.78
704.338
705.786
704.865
705.209
704.685
703.882
704.019
703.583
703.81
703.96
704.108
703.594
703.841
704.127
704.251
703.646
703.868
706.17
707.962
704.992
704.196
703.762
707.978
706.261
705.105
704.315
703.92
707.921
706.138
704.929
704.24
703.98
704.582
705.565
704.486
705.546
704.587
705.503
704.435
705.452
704.613
705.427
704.361
705.292
707.976
708.344
706.261
706.727
705.203
705.796
704.523
705.219
704.294
705.141
707.805
707.922
706.054
706.244
704.946
705.327
704.38
704.985
704.302
705.142
705.98
705.858
706.317
706.007
707.812
707.532
708.218
707.706
705.179
705.232
704.905
705.106
706.864
706.412
707.418
706.99
708.809
708.158
709.426
708.804
705.639
705.594
706.133
706.126
704.606
705.043
704.606
705.416
704.402
704.956
704.411
705.279
704.949
705.335
704.896
705.714
705.411
705.828
705.262
706.096
706.764
707.885
707.09
708.416
706.621
707.824
706.969
708.372
706.492
707.816
706.78
708.405
709.143
710.586
707.613
709.095
706.739
708.238
706.262
707.803
706.637
708.548
708.548
710.213
706.997
708.743
706.288
708.122
706.194
708.112
706.801
708.963
704.465
706.413
709.759
715.252
705.147
707.09
710.477
715.981
704.419
706.357
709.691
715.224
705.072
706.995
710.351
715.835
704.383
706.307
709.474
714.829
704.792
706.683
709.901
715.271
705.526
707.347
710.631
716.027
706.089
707.803
711.032
716.337
704.563
706.444
709.534
714.803
704.896
706.791
709.581
714.282
704.459
706.378
709.322
714.32
704.829
706.761
709.501
714.035
704.841
706.659
709.83
715.186
705.049
706.888
709.706
714.428
705.205
706.928
710.061
715.293
705.282
707.045
709.831
714.465
704.243
706.186
709.345
714.574
704.555
706.486
709.338
713.98
704.284
706.223
709.334
714.53
704.621
706.554
709.379
713.978
704.387
706.322
709.316
714.36
704.703
706.641
709.432
713.962
704.59
706.527
709.349
714.086
704.819
706.762
709.48
713.874
704.877
706.824
709.486
713.8
705.288
707.21
709.893
713.253
706.25
708.169
710.897
714.029
705.284
707.211
709.886
713.233
706.248
708.177
710.905
714.037
705.295
707.234
709.914
713.266
706.263
708.208
710.94
714.058
705.312
707.267
709.92
713.26
706.279
708.246
710.973
714.085
705.355
707.325
709.939
713.25
706.323
708.317
711.035
714.136
705.649
707.593
710.192
713.469
706.52
708.509
711.193
714.293
705.473
707.443
710.057
713.355
706.382
708.386
711.092
714.19
705.883
707.776
710.362
713.631
706.758
708.698
711.35
714.421
706.154
707.972
710.515
713.759
707.062
708.92
711.52
714.561
723.378
729.864
735.355
739.806
743.224
723.79
730.197
735.669
740.114
743.529
723.379
729.869
735.358
739.807
743.223
723.785
730.192
735.659
740.101
743.514
723.35
729.867
735.356
739.803
743.218
723.58
729.996
735.462
739.901
743.314
723.847
730.228
735.676
740.106
743.514
723.915
730.26
735.687
740.107
743.51
723.39
729.894
735.373
739.813
743.226
723.747
730.382
735.872
740.309
743.717
723.402
729.972
735.466
739.91
743.324
723.789
730.454
735.953
740.393
743.802
723.488
729.957
735.421
739.854
743.263
723.876
730.488
735.965
740.395
743.8
723.542
729.985
735.431
739.855
743.259
723.984
730.574
736.036
740.457
743.858
723.396
730
735.511
739.965
743.382
723.839
730.549
736.07
740.521
743.935
723.419
730.03
735.54
739.992
743.409
723.853
730.565
736.085
740.535
743.948
723.48
730.111
735.619
740.068
743.482
723.906
730.621
736.136
740.583
743.995
723.668
730.344
735.851
740.296
743.708
724.043
730.753
736.262
740.704
744.114
723.976
730.663
736.166
740.606
744.014
738.274
739.486
738.439
739.679
738.819
740.091
739.427
740.674
740.409
741.49
742.918
744.33
741.796
743.024
743.878
745.432
744.741
746.316
753.832
769.693
782.495
792.182
798.619
753.477
769.504
782.472
792.232
798.783
753.985
769.802
782.574
792.243
798.669
753.679
769.66
782.558
792.335
798.851
754.297
770.019
782.729
792.363
798.772
753.982
769.868
782.705
792.447
798.947
754.783
770.353
782.97
792.551
798.935
754.43
770.172
782.922
792.617
799.095
755.474
770.821
783.312
792.824
799.175
755.009
770.557
783.203
792.839
799.29
757.135
771.981
784.177
793.513
799.771
756.829
771.796
784.109
793.545
799.882
756.292
771.369
783.716
793.147
799.457
755.843
771.1
783.597
793.148
799.551
757.932
772.596
784.654
793.897
800.103
757.765
772.503
784.645
793.968
800.241
758.708
773.217
785.145
794.3
800.457
758.621
773.207
785.184
794.404
800.633
709.934
711.485
710.407
708.788
706.732
707.584
706.715
707.688
708.326
709.336
708.324
709.191
724.906
724.642
723.979
722.924
721.502
719.79
725.02
724.769
724.139
723.151
721.852
720.328
725.596
726.63
725.297
726.288
724.552
725.443
723.353
724.061
721.749
722.293
719.887
720.475
717.959
716.232
714.761
713.56
712.668
712.012
718.706
717.136
715.732
714.558
713.648
713.006
723.638
723.136
723.223
723.901
725.172
723.371
722.866
722.95
723.626
724.896
722.701
722.19
722.268
722.939
724.208
721.636
721.114
721.181
721.846
723.112
720.197
719.657
719.708
720.361
721.623
718.461
717.894
717.919
718.552
719.807
723.75
723.247
723.332
724.009
725.278
723.497
722.99
723.071
723.745
725.014
722.859
722.346
722.421
723.09
724.357
721.86
721.335
721.399
722.06
723.325
720.545
720.002
720.049
720.698
721.958
718.997
718.428
718.449
719.079
720.331
724.33
723.83
723.918
724.596
725.866
725.367
724.869
724.957
725.634
726.902
724.028
723.525
723.61
724.286
725.555
725.022
724.52
724.606
725.281
726.547
723.276
722.767
722.846
723.518
724.786
724.17
723.661
723.74
724.411
725.676
722.067
721.546
721.614
722.279
723.545
722.775
722.254
722.321
722.983
724.247
720.445
719.905
719.956
720.608
721.87
720.988
720.446
720.493
721.141
722.4
718.558
717.991
718.014
718.647
719.901
719.142
718.571
718.589
719.216
720.466
716.593
715.986
715.971
716.574
717.816
714.815
714.15
714.077
714.637
715.858
713.269
712.524
712.373
712.872
714.063
711.964
711.112
710.863
711.286
712.437
710.95
709.991
709.65
710.003
711.117
710.212
709.19
708.802
709.121
710.215
717.342
716.735
716.72
717.322
718.562
715.728
715.072
715.008
715.573
716.795
714.267
713.548
713.423
713.942
715.141
713.025
712.235
712.043
712.511
713.685
712.051
711.197
710.948
711.373
712.525
711.37
710.483
710.205
710.609
711.75
724.766
724.221
723.276
721.938
720.229
718.225
724.88
724.351
723.443
722.181
720.616
718.846
725.45
726.477
724.859
725.827
723.819
724.672
722.32
722.969
720.413
720.886
718.215
718.677
716.125
714.22
712.724
711.758
711.409
711.557
717.029
715.363
714.013
713.094
712.655
712.653
723.497
722.996
723.084
723.763
725.034
722.951
722.447
722.534
723.212
724.484
722
721.492
721.575
722.251
723.524
720.653
720.137
720.213
720.885
722.158
718.93
718.401
718.464
719.129
720.401
716.906
716.357
716.401
717.052
718.32
723.611
723.109
723.195
723.872
725.142
723.08
722.575
722.659
723.336
724.607
722.166
721.656
721.736
722.41
723.682
720.894
720.375
720.448
721.117
722.388
719.315
718.783
718.842
719.503
720.772
717.525
716.972
717.011
717.658
718.923
724.184
723.685
723.774
724.453
725.723
725.214
724.716
724.805
725.483
726.751
723.591
723.089
723.177
723.855
725.126
724.562
724.062
724.15
724.827
726.096
722.545
722.039
722.123
722.799
724.071
723.4
722.895
722.979
723.654
724.924
721.037
720.523
720.599
721.272
722.544
721.687
721.173
721.249
721.92
723.19
719.116
718.588
718.652
719.317
720.589
719.588
719.059
719.121
719.784
721.054
716.898
716.35
716.396
717.048
718.317
717.359
716.81
716.854
717.505
718.771
714.776
714.195
714.209
714.838
716.098
712.829
712.2
712.169
712.764
714.009
711.268
710.571
710.472
711.017
712.236
710.204
709.406
709.214
709.687
710.868
709.727
708.813
708.52
708.914
710.052
709.771
708.768
708.399
708.734
709.838
715.68
715.096
715.106
715.731
716.987
713.975
713.348
713.316
713.91
715.152
712.572
711.888
711.801
712.353
713.574
711.587
710.833
710.679
711.179
712.374
711.078
710.252
710.032
710.481
711.649
711.026
710.148
709.882
710.295
711.442
711.563
711.231
713.97
716.115
716.252
716.75
714.78
710.276
710.891
710.418
712.281
711.877
711.636
712.92
713.211
714.003
710.108
710.13
711.599
711.73
710.838
711.078
712.222
712.502
714.442
714.434
712.838
712.815
710.792
710.682
710.02
710.503
710.687
710.1
712.07
713.771
711.693
708.692
707.252
706.646
706.734
707.549
709.115
707.906
707.378
707.583
708.605
712.587
711.969
711.947
712.551
713.8
714.771
714.197
714.217
714.852
716.114
714.9
714.314
714.323
714.948
716.205
715.412
714.842
714.867
715.504
716.767
713.415
712.815
712.811
713.428
714.683
707.752
706.445
705.903
706.052
706.869
708.445
707.193
706.707
706.912
707.805
708.58
707.548
707.154
707.472
708.566
710.102
708.987
708.599
708.893
709.93
710.335
709.549
709.37
709.853
711.041
709.955
709.051
708.767
709.171
710.315
711.445
710.724
710.604
711.131
712.341
711.705
710.951
710.798
711.3
712.495
712.552
711.855
711.755
712.297
713.513
707.631
706.356
705.837
706.004
706.854
708.391
707.434
707.103
707.467
708.589
710.085
709.328
709.174
709.677
710.875
710.25
709.527
709.406
709.933
711.144
709.268
708.458
708.256
708.722
709.901
709.555
708.788
708.627
709.123
710.318
710.771
710.08
709.988
710.538
711.762
711.073
710.405
710.336
710.903
712.135
713.039
712.396
712.349
712.931
714.168
713.052
712.433
712.409
713.011
714.258
711.392
710.703
710.613
711.164
712.386
711.389
710.723
710.655
711.223
712.455
708.11
706.76
706.198
706.326
707.168
708.751
707.664
707.232
707.514
708.587
707.905
706.762
706.287
706.514
707.471
708.812
707.894
707.595
707.984
709.12
709.105
708.283
708.069
708.524
709.698
708.344
707.371
707.02
707.368
708.481
710.618
709.925
709.832
710.382
711.605
712.38
711.753
711.722
712.318
713.564
710.217
709.499
709.382
709.912
711.126
712.344
711.17
710.707
710.912
711.722
713.287
712.17
712.272
709.966
709.924
712.373
712.556
710.03
710.124
714.538
717.008
714.557
716.782
714.784
714.659
716.376
712.114
712.226
709.883
709.828
712.337
712.517
709.964
710.094
714.679
717.295
714.689
717
714.9
714.711
716.561
712.153
712.274
709.866
709.797
712.391
712.578
709.966
710.099
714.81
717.975
714.82
717.585
715.028
714.822
717.05
712.593
712.71
710.25
710.178
712.835
713.051
710.353
710.505
715.423
718.763
715.403
718.344
715.574
715.332
717.699
713.362
713.471
711.024
710.953
713.589
713.844
711.121
711.266
716.207
719.327
716.17
718.99
716.301
716.112
718.361
714.736
714.833
712.438
712.372
714.921
715.128
712.528
712.651
717.424
720.308
717.362
719.989
717.464
717.263
719.351
706.401
706.387
707.99
707.985
706.419
706.442
708.02
708.065
705.243
704.357
705.297
704.494
705.31
705.455
704.759
706.297
706.301
707.896
707.876
706.361
706.417
707.951
708.005
705.089
704.357
705.174
704.523
705.248
705.442
704.802
706.251
706.279
707.862
707.824
706.374
706.462
707.945
708.035
705.167
704.668
705.273
704.816
705.4
705.599
705.073
706.634
706.677
708.238
708.189
706.793
706.916
708.332
708.421
705.65
705.374
705.772
705.511
705.947
706.184
705.753
707.446
707.496
709.027
708.977
707.641
707.812
709.121
709.22
706.555
706.41
706.687
706.518
706.884
707.144
706.719
708.93
708.982
710.477
710.427
709.126
709.271
710.57
710.66
708.057
707.759
708.182
707.876
708.344
708.564
708.081
724.956
724.568
723.803
723.17
722.121
721.483
719.755
719.243
720.189
719.59
722.044
721.436
723.384
722.806
724.453
724.037
721.636
720.826
720.547
719.429
718.771
717.729
717.777
716.457
726.435
728.873
726.014
728.287
725.364
727.707
724.675
726.882
723.018
724.28
721.862
723.456
726.302
724.947
719.185
717.185
718.106
716.619
716.586
714.91
715.3
714.03
721.642
719.551
720.444
718.865
723.589
721.56
731.675
733.322
730.522
732.227
730.497
732.568
729.123
731.018
728.82
731.63
726.735
729.327
725.132
727.691
723.323
725.919
721.065
720.712
719.329
719.168
717.271
716.808
715.906
715.441
722.623
723.149
724.683
724.803
717.861
717.886
716.535
716.821
714.67
714.287
713.507
713.3
720.943
721.78
719.458
720.673
725.852
728.986
727.101
730.644
728.091
731.315
728.841
732.532
724.012
727.049
725.673
729.14
722.394
725.379
724.551
727.961
735.633
739.282
736.218
739.849
734.52
737.901
735.617
739.074
732.701
735.286
734.633
737.473
723.543
719.043
727.623
730.702
734.023
719.651
724.405
729.26
732.554
736.162
718.532
722.771
726.88
730.771
734.573
742.652
744.259
744.524
745.957
740.899
742.747
743.35
744.901
737.945
740.019
741.39
743.242
720.651
722.292
725.85
728.113
730.638
732.999
734.473
736.82
739.569
741.943
719.269
720.593
724.016
726.387
728.479
731.196
732.926
735.875
738.54
741.663
721.888
724.565
719.966
722.338
717.231
717.953
715.522
715.898
724.689
727.873
726.57
729.949
718.331
720.715
717.283
719.557
714.145
714.497
713.159
713.403
722.972
726.222
721.912
725.089
730.071
733.956
736.744
741.486
731.581
735.655
737.742
742.392
728.673
732.44
735.782
740.451
727.351
731.155
734.389
738.809
744.666
745.291
746.579
745.014
745.201
746.367
743.529
744.333
745.706
744.167
744.426
745.688
741.279
742.372
743.914
742.922
743.367
744.789
724.311
726.629
729.113
730.511
732.525
734.711
735.217
736.934
738.849
738.611
740.031
741.858
741.945
742.6
744.27
722.454
725.046
727.851
729.53
732.242
735.02
734.381
736.754
739.232
738.306
740.046
742.22
741.911
742.784
744.713
713.678
712.842
712.943
711.871
715.976
714.939
715.127
713.849
713.165
711.391
712.976
711.321
712.658
711.069
712.299
710.807
711.131
711.833
710.696
711.517
710.774
710.196
711.039
710.069
712.829
711.741
710.659
709.748
710.022
709.146
709.86
708.965
709.601
708.021
709.911
708.417
709.373
707.747
709.45
707.94
709.187
707.406
708.802
707.167
708.511
707.062
707.746
706.539
711.707
710.965
710.762
709.925
714.12
713.472
713.002
712.295
709.193
708.198
710.015
709.109
709.832
709.023
708.905
708.225
711.939
711.279
710.909
710.386
708.38
707.404
707.535
706.698
707.874
706.452
707.055
706.193
708.535
707.02
707.849
706.859
707.215
705.948
706.357
705.617
706.483
705.408
705.743
705.117
709.615
710.334
708.163
708.925
709.596
710.363
708.056
708.851
709.584
710.278
707.893
708.608
712.378
715.23
710.588
709.186
707.688
715.784
712.958
711.274
709.898
708.321
714.711
711.938
709.954
708.616
707.517
711.61
713.384
710.22
711.944
711.519
713.206
710.018
711.673
711.282
712.876
709.628
711.171
716.503
717.854
713.51
714.885
711.795
713.211
710.493
711.938
709.012
710.468
715.148
715.924
712.306
713.09
710.381
711.328
709.14
710.311
708.183
709.65
710.769
711.007
709.702
709.633
713.357
713.508
712.068
711.823
708.175
708.495
709.091
709.666
708.882
708.574
708.091
707.699
711.067
710.591
710.174
709.598
707.44
707.55
706.733
706.77
707.223
707.952
706.766
707.942
708.063
709.011
707.421
708.764
706.538
707.077
706.2
707.223
705.962
706.423
705.696
706.583
715.804
718.209
720.477
714.92
717.639
719.915
715.473
717.906
720.226
714.529
717.263
719.637
715.004
717.391
719.747
713.896
716.761
719.294
719.691
722
724.504
716.768
719.164
721.723
715.129
717.631
720.234
713.975
716.469
718.985
713.206
716.219
718.981
717.373
719.867
722.702
714.618
717.163
720.01
713.086
715.788
718.719
712.389
715.236
718.194
712.518
715.677
718.714
707.342
708.352
711.085
716.154
707.801
708.886
711.713
716.828
707.138
708.191
710.931
716.045
707.426
708.586
711.438
716.567
706.882
707.994
710.619
715.581
706.774
708.025
710.828
715.897
706.857
708.251
711.255
716.452
706.573
708.132
711.259
716.494
706.281
707.612
710.349
715.371
706.366
707.792
710.296
714.812
706.707
707.899
710.372
715.032
706.843
708.125
710.45
714.704
705.936
707.405
710.358
715.565
705.951
707.505
710.156
714.777
705.584
707.187
710.245
715.425
705.588
707.254
709.985
714.586
707.412
708.309
710.793
715.563
708.037
708.792
710.908
715.074
707.355
708.283
710.73
715.466
708.012
708.803
710.907
715.03
707.278
708.263
710.631
715.229
707.881
708.756
710.864
714.938
707.256
708.319
710.568
714.896
707.756
708.724
710.806
714.766
707.318
708.466
710.613
714.574
709.007
709.635
711.539
714.504
710.102
710.65
712.593
715.366
708.891
709.575
711.492
714.448
709.981
710.595
712.564
715.346
708.672
709.46
711.423
714.4
709.761
710.489
712.508
715.297
708.354
709.284
711.291
714.282
709.462
710.335
712.416
715.228
707.941
709.053
711.132
714.153
709.11
710.158
712.317
715.16
707.147
708.606
710.916
714.053
708.202
709.636
711.99
714.937
707.538
708.832
711.03
714.112
708.655
709.9
712.155
715.045
706.796
708.396
710.811
714.005
707.784
709.389
711.841
714.82
706.46
708.18
710.666
713.887
707.402
709.149
711.683
714.694
723.91
730.189
735.559
739.944
743.331
724.306
730.518
735.874
740.254
743.64
723.861
730.165
735.543
739.931
743.32
724.224
730.462
735.828
740.214
743.602
723.775
730.126
735.518
739.911
743.303
723.945
730.221
735.602
739.995
743.387
724.101
730.385
735.774
740.171
743.565
724.011
730.319
735.724
740.131
743.529
723.72
730.095
735.499
739.897
743.292
724.039
730.558
735.982
740.382
743.774
723.79
730.208
735.613
740.009
743.401
724.138
730.664
736.084
740.48
743.87
723.715
730.096
735.508
739.912
743.308
724.075
730.609
736.04
740.445
743.839
723.621
730.033
735.461
739.874
743.274
724.053
730.616
736.062
740.474
743.871
723.948
730.331
735.716
740.101
743.488
724.405
730.885
736.276
740.658
744.041
723.94
730.346
735.737
740.125
743.513
724.4
730.893
736.289
740.672
744.056
723.948
730.394
735.795
740.186
743.575
724.404
730.919
736.322
740.708
744.093
724.085
730.595
736.007
740.401
743.79
724.482
731.016
736.425
740.814
744.2
724.361
730.894
736.309
740.702
744.09
752.393
753.446
751.906
752.988
751.065
752.262
750
751.397
748.949
750.56
747.312
749.183
748.153
749.979
746.474
748.281
745.596
747.242
764.16
777.117
788.072
796.647
802.545
763.96
777.01
788.089
796.72
802.717
763.941
777
787.997
796.59
802.495
763.771
776.932
788.022
796.704
802.686
763.524
776.767
787.842
796.474
802.394
763.368
776.706
787.873
796.592
802.59
762.963
776.431
787.615
796.302
802.246
762.855
776.4
787.666
796.436
802.457
762.31
776.005
787.316
796.074
802.05
762.302
776.038
787.412
796.24
802.286
760.9
774.953
786.521
795.436
801.478
761.038
775.1
786.703
795.663
801.755