/*--------------------------------*- C++ -*----------------------------------*\
  =========                 |
  \\      /  F ield         | OpenFOAM: The Open Source CFD Toolbox
   \\    /   O peration     | Website:  https://openfoam.org
    \\  /    A nd           | Version:  13
     \\/     M anipulation  |
\*---------------------------------------------------------------------------*/
FoamFile
{
    format      ascii;
    class       volScalarField;
    location    "9.831886";
    object      T;
}
// * * * * * * * * * * * * * * * * * * * * * * * * * * * * * * * * * * * * * //

dimensions      [0 0 0 1 0 0 0];

internalField   nonuniform List<scalar> 
5712
(
415.072
414.63
413.917
413.247
412.328
411.635
410.296
409.716
410.9
410.217
412.512
411.833
413.754
413.126
414.736
414.258
411.659
410.726
410.48
409.202
409.158
407.988
408.051
406.563
416.334
418.502
415.873
417.919
415.212
417.29
414.495
416.483
412.657
413.986
411.421
413.102
415.818
414.441
409.075
406.971
407.801
406.233
406.771
404.959
405.297
403.928
411.263
409.097
409.957
408.311
413.088
410.986
421.026
422.671
420.01
421.75
419.8
421.85
418.576
420.498
418.027
420.753
416.014
418.598
414.434
417.006
412.569
415.191
410.799
410.367
408.951
408.711
407.462
406.96
405.941
405.455
411.919
412.254
414.036
413.988
407.395
407.353
405.991
406.234
404.589
404.208
403.334
403.16
410.184
410.828
408.637
409.677
414.904
417.979
415.869
419.273
417.132
420.244
417.651
421.162
413.052
416.066
414.407
417.759
411.393
414.376
413.25
416.558
424.771
428.194
425.353
428.697
423.641
426.868
424.697
427.908
421.78
424.3
423.602
426.263
413.374
409.459
416.984
419.708
422.835
410.167
414.331
418.695
421.584
424.887
408.879
412.551
416.143
419.621
423.184
431.369
433.124
432.89
434.397
429.758
431.762
431.783
433.408
426.933
429.185
429.873
431.804
411.313
413.244
415.867
418.401
420.118
422.707
423.479
425.996
428.033
430.479
409.734
411.29
413.871
416.417
417.772
420.636
421.727
424.788
426.854
430.026
411.576
414.378
409.597
412.095
407.505
408.552
405.706
406.443
413.789
417.01
415.716
419.146
407.943
410.436
406.855
409.245
404.279
405.003
403.249
403.881
412.065
415.329
410.968
414.158
418.655
422.481
424.802
429.356
420.229
424.264
425.886
430.375
417.231
420.926
423.79
428.262
415.901
419.636
422.399
426.64
434.056
435.279
437.105
434.19
435.043
436.758
433.012
434.403
436.318
433.382
434.313
436.144
430.879
432.538
434.623
432.168
433.325
435.353
415.635
418.361
421.292
421.201
423.696
426.388
425.324
427.593
430.069
428.207
430.225
432.633
431.22
432.664
435.014
413.525
416.598
419.924
419.939
423.197
426.564
424.253
427.256
430.385
427.775
430.26
433.141
431.234
432.998
435.697
404.806
403.848
403.947
402.712
406.754
405.586
405.777
404.325
404.86
403.293
404.613
403.174
404.228
402.851
403.807
402.54
402.415
403.238
401.813
402.797
402.372
401.693
401.751
400.647
403.184
401.977
401.827
400.713
401.017
400.007
401.258
400.186
401.706
400.357
401.976
400.775
401.366
400.019
401.408
400.228
400.976
399.557
400.471
399.263
400.08
399.107
399.183
398.491
402.72
401.941
401.587
400.75
404.741
404.073
403.445
402.744
400.353
399.366
401.359
400.413
400.519
399.744
399.478
398.875
402.251
401.626
401.117
400.664
399.404
398.473
398.444
397.698
399.366
398.418
398.547
398.13
400.18
399.079
399.458
398.887
398.585
397.831
397.763
397.487
397.743
397.207
397.084
396.936
401.995
402.922
400.586
401.488
401.864
402.836
400.425
401.356
401.654
402.517
400.161
400.986
403.676
406.141
402.198
401.014
399.851
406.792
404.363
403.046
401.873
400.576
405.554
403.141
401.451
400.371
399.646
404.395
406.374
402.946
404.844
404.179
406.081
402.661
404.477
403.706
405.516
402.121
403.808
407.673
409.307
405.073
406.717
403.674
405.326
402.581
404.241
401.335
402.924
406.129
407.154
403.648
404.671
401.998
403.154
401.003
402.368
400.372
401.974
401.905
402.431
400.696
400.947
404.128
404.597
402.704
402.825
399.481
400.071
400.528
401.352
399.774
399.828
398.928
398.919
401.611
401.547
400.668
400.523
398.645
399.062
397.887
398.248
398.847
399.808
398.79
400.127
399.786
400.963
399.514
401.012
398.087
398.872
398.174
399.362
397.446
398.178
397.609
398.661
409.05
411.755
414.361
408.085
411.125
413.734
408.605
411.346
414.012
407.58
410.637
413.359
407.896
410.589
413.298
406.764
409.962
412.867
411.483
414.166
417.09
408.902
411.643
414.598
407.516
410.351
413.339
406.531
409.347
412.241
405.887
409.249
412.413
408.945
411.873
415.184
406.505
409.452
412.749
405.189
408.271
411.646
404.696
407.911
411.304
405.055
408.583
412.061
400.137
401.755
405.173
411.117
400.65
402.361
405.889
411.891
399.907
401.577
405.007
411.007
400.235
402.035
405.593
411.614
399.6
401.348
404.647
410.473
399.474
401.385
404.884
410.837
399.567
401.65
405.389
411.487
399.241
401.517
405.402
411.541
398.896
400.909
404.339
410.235
398.988
401.119
404.29
409.61
399.385
401.237
404.363
409.845
399.53
401.498
404.465
409.484
398.502
400.674
404.354
410.463
398.52
400.793
404.134
409.575
398.101
400.427
404.228
410.306
398.114
400.511
403.942
409.359
400.234
401.715
404.847
410.448
400.961
402.279
404.995
409.907
400.163
401.684
404.779
410.347
400.921
402.288
404.993
409.861
400.059
401.659
404.665
410.076
400.753
402.229
404.944
409.756
400.018
401.722
404.596
409.7
400.596
402.19
404.877
409.561
400.078
401.892
404.652
409.339
402.08
403.26
405.747
409.291
403.341
404.437
406.98
410.324
401.931
403.181
405.687
409.226
403.184
404.363
406.937
410.294
401.661
403.044
405.607
409.17
402.912
404.237
406.873
410.238
401.275
402.837
405.452
409.034
402.547
404.055
406.766
410.159
400.786
402.569
405.267
408.886
402.127
403.847
406.652
410.081
399.882
402.059
405.027
408.778
401.088
403.25
406.279
409.83
400.321
402.314
405.153
408.842
401.599
403.548
406.466
409.95
399.493
401.825
404.914
408.728
400.626
402.973
406.114
409.699
399.121
401.583
404.753
408.596
400.206
402.706
405.938
409.56
420.054
427.275
433.461
438.553
442.553
420.513
427.658
433.831
438.92
442.921
420.003
427.249
433.444
438.54
442.542
420.434
427.606
433.79
438.884
442.887
419.904
427.205
433.416
438.516
442.521
420.106
427.319
433.519
438.62
442.625
420.294
427.518
433.728
438.835
442.844
420.194
427.445
433.673
438.791
442.805
419.842
427.17
433.394
438.502
442.51
420.225
427.725
433.978
439.09
443.098
419.925
427.303
433.53
438.635
442.641
420.34
427.848
434.097
439.206
443.211
419.842
427.177
433.411
438.524
442.536
420.274
427.792
434.054
439.173
443.185
419.738
427.106
433.359
438.483
442.498
420.254
427.805
434.083
439.211
443.226
420.109
427.451
433.656
438.749
442.75
420.657
428.115
434.333
439.427
443.427
420.099
427.464
433.677
438.773
442.775
420.644
428.117
434.34
439.436
443.437
420.111
427.523
433.748
438.849
442.852
420.652
428.15
434.381
439.481
443.484
420.277
427.765
434.005
439.11
443.116
420.747
428.268
434.508
439.611
443.617
420.603
428.122
434.368
439.474
443.477
439.941
440.954
439.473
440.506
438.613
439.764
437.514
438.87
436.397
437.976
434.589
436.384
435.498
437.264
433.716
435.437
432.827
434.392
450.351
461.908
471.92
480.159
486.422
450.244
461.888
472.021
480.317
486.679
450.138
461.798
471.854
480.113
486.383
450.049
461.805
471.955
480.304
486.656
449.707
461.562
471.706
480.008
486.295
449.634
461.579
471.813
480.204
486.572
449.125
461.227
471.492
479.856
486.169
449.101
461.271
471.618
480.066
486.46
448.448
460.807
471.218
479.661
486.009
448.523
460.912
471.381
479.895
486.317
446.979
459.766
470.473
479.094
485.515
447.182
459.976
470.718
479.388
485.863
447.714
460.301
470.864
479.399
485.785
447.887
460.482
471.086
479.675
486.123
446.257
459.226
470.068
478.776
485.233
446.405
459.395
470.281
479.041
485.552
445.531
458.673
469.65
478.447
484.945
445.575
458.784
469.808
478.665
485.234
401.864
403.194
404.728
403.195
406.17
405.878
405.711
405.312
406.063
405.539
407.949
407.355
409.139
408.457
407.736
407.154
407.255
406.837
407.25
406.925
403.5
403.511
409.972
412.388
412.914
413.269
411.083
408.037
410.444
408.174
412.725
415.982
409.309
409.829
412.401
410.196
411.12
411.576
406.231
406.676
408.453
408.157
407.279
406.968
407.88
408.65
411.438
411.082
409.675
409.303
404.33
404.24
405.057
405.09
406.03
405.815
407.994
410.078
407.821
400.731
399.437
399.004
399.303
400.335
401.371
400.241
399.86
400.268
401.546
408.371
407.661
407.644
408.351
409.808
410.825
410.161
410.19
410.934
412.41
411.334
410.647
410.652
411.376
412.84
411.708
411.044
411.073
411.816
413.291
409.493
408.795
408.79
409.506
410.967
404.989
403.269
402.461
402.478
403.279
407.183
405.301
404.42
404.414
405.305
405.903
404.546
403.932
404.171
405.362
409.66
407.822
407.003
407.079
408.134
412.968
411.063
410.222
410.287
411.348
407.424
406.405
406.089
406.563
407.893
407.693
406.441
405.92
406.239
407.484
410.309
409.089
408.595
408.938
410.196
408.412
407.496
407.275
407.821
409.19
409.244
408.232
407.923
408.402
409.735
409.816
408.923
408.723
409.286
410.663
403.422
401.969
401.336
401.477
402.398
404.636
403.485
403.046
403.417
404.682
406.65
405.714
405.474
406.006
407.367
406.421
405.558
405.388
405.973
407.363
405.438
404.468
404.197
404.702
406.046
405.21
404.327
404.139
404.709
406.09
406.214
405.431
405.342
405.991
407.417
406.989
406.21
406.122
406.773
408.199
409.783
409.007
408.921
409.573
410.998
409.462
408.73
408.689
409.377
410.822
407.958
407.115
406.964
407.564
408.963
407.63
406.837
406.735
407.374
408.793
401.622
400.28
399.785
400.038
401.02
402.203
401.115
400.758
401.189
402.484
402.735
401.508
401.012
401.296
402.395
403.222
402.246
401.974
402.475
403.816
404.236
403.321
403.103
403.649
405.016
403.818
402.714
402.314
402.71
403.989
406.315
405.518
405.413
406.049
407.467
408.457
407.723
407.681
408.367
409.812
406.104
405.265
405.118
405.722
407.123
401.687
402.685
401.76
402.861
399.816
400.957
399.77
400.786
401.847
401.978
402.881
402.655
399.858
399.946
400.886
400.586
403.743
405.822
404.659
406.663
403.757
405.628
404.817
406.66
404.823
403.902
404.345
403.74
405.348
406.285
404.168
405.255
403.631
404.798
402.233
403.36
401.541
402.626
406.063
407.226
405.372
406.678
407.573
408.948
407.805
409.622
408.563
410.305
407.636
409.772
408.586
410.496
407.245
410.083
407.897
410.449
409.087
411.699
410.646
413.302
402.657
403.251
403.123
403.787
400.193
400.433
400.679
400.903
405.535
407.096
405.098
406.538
403.877
404.445
404.844
405.266
401.405
401.512
402.299
402.259
406.311
407.779
407.364
408.664
408.136
411.253
410.63
414.092
407.812
411.146
410.143
413.778
408.9
411.893
411.297
414.668
410.019
412.975
412.214
415.527
407.824
408.733
409.819
411.266
407.65
408.405
410.075
411.473
407.357
407.766
410.549
411.711
402.551
400.01
405.097
407.925
411.702
399.93
402.336
404.874
407.843
412.299
400.19
402.942
406.197
409.853
413.764
410.311
411.141
415.246
416.788
409.584
410.415
414.966
416.508
408.513
409.22
414.635
416.193
400.036
400.55
402.607
403.198
405.369
405.961
408.796
409.517
415.13
416.795
400.272
400.853
403.309
404.421
406.851
408.22
411.058
412.668
416.863
418.864
404.129
405.981
404.655
406.563
400.658
401.093
401.125
401.503
408.651
411.277
408.036
410.527
405.117
407.284
405.929
408.237
401.658
402.158
402.388
402.965
409.114
412.044
410.003
413.107
413.544
416.872
419.898
424.039
412.66
415.895
418.711
422.595
414.236
417.677
420.914
425.178
414.889
418.563
421.483
425.676
411.625
412.463
416.129
416.459
410.907
411.827
415.959
416.247
409.878
411.14
415.811
416.202
401.563
403.302
404.281
405.938
406.926
408.397
410.35
411.771
416.224
416.617
401.933
403.832
405.99
407.777
409.654
411.103
413.453
414.352
417.548
417.731
396.886
396.85
397.888
397.482
398.171
398.154
399.214
398.801
396.053
395.55
397.019
396.485
396.073
395.589
397.121
396.588
396.948
396.065
396.764
396.123
395.699
396.553
398.399
399.484
399.706
400.766
398.152
399.363
397.712
398.819
397.728
398.859
395.356
395.47
396.268
396.335
395.314
395.385
396.29
396.275
395.278
395.27
395.999
395.888
397.052
396.835
398.077
397.666
396.677
396.706
397.123
397.037
398.168
398.212
398.637
398.616
396.189
396.067
395.772
395.792
397.787
397.521
398.582
398.13
399.328
399.166
400.165
399.841
396.826
396.49
397.588
397.034
395.631
395.551
395.645
395.778
395.248
395.29
395.417
395.62
396.239
396.018
396.012
396.061
396.957
396.59
396.496
396.456
394.948
395.072
395.119
395.337
394.968
395.112
395.118
395.362
395.06
395.178
395.157
395.378
396.525
397.991
395.638
395.161
395.297
398.005
396.592
395.721
395.251
395.443
398.007
396.564
395.695
395.35
395.604
395.67
396.736
396.034
397.148
395.622
396.623
395.973
397.041
395.569
396.461
395.885
396.867
398.063
398.56
396.652
397.227
395.879
396.557
395.523
396.299
395.854
396.753
397.985
398.317
396.573
396.962
395.795
396.351
395.566
396.327
395.96
396.877
396.618
396.8
397.023
397.064
398.094
398.14
398.574
398.454
396.206
396.559
395.871
396.338
397.607
397.543
398.211
398.175
399.211
398.995
399.877
399.695
396.698
396.986
397.242
397.57
395.975
396.668
396.411
397.384
395.704
396.498
396.155
397.165
396.361
397.017
396.75
397.743
396.851
397.549
397.138
398.142
398.055
399.325
398.779
400.251
397.852
399.216
398.653
400.209
397.649
399.176
398.466
400.276
399.559
401.297
398.297
400.049
397.655
399.393
397.488
399.276
398.359
400.503
399.223
401.214
397.968
400.016
397.532
399.642
397.721
399.901
398.642
401.074
396.801
399.54
403.682
410.119
397.592
400.322
404.509
410.961
396.751
399.477
403.604
410.085
397.509
400.213
404.361
410.789
396.714
399.421
403.352
409.629
397.19
399.854
403.836
410.132
398.037
400.62
404.682
411.008
398.686
401.143
405.145
411.363
396.935
399.583
403.419
409.597
397.331
399.99
403.487
409.016
396.809
399.507
403.178
409.047
397.246
399.954
403.397
408.735
397.255
399.828
403.759
410.037
397.507
400.1
403.63
409.184
397.67
400.134
404.022
410.157
397.771
400.276
403.769
409.223
396.534
399.277
403.21
409.345
396.876
399.621
403.212
408.68
396.584
399.322
403.198
409.295
396.956
399.701
403.262
408.679
396.708
399.438
403.179
409.1
397.06
399.804
403.323
408.659
396.951
399.679
403.219
408.792
397.204
399.949
403.379
408.56
397.291
400.026
403.383
408.471
397.701
400.454
403.874
407.884
398.795
401.561
405.043
408.81
397.703
400.458
403.865
407.86
398.802
401.573
405.053
408.82
397.729
400.489
403.899
407.896
398.835
401.614
405.095
408.844
397.767
400.532
403.903
407.887
398.874
401.664
405.134
408.874
397.838
400.606
403.923
407.874
398.946
401.751
405.205
408.932
398.206
400.92
404.215
408.125
399.211
401.982
405.384
409.109
397.993
400.746
404.059
407.994
399.035
401.837
405.269
408.991
398.476
401.131
404.411
408.31
399.489
402.2
405.564
409.253
398.781
401.351
404.583
408.454
399.831
402.45
405.756
409.412
419.463
426.913
433.236
438.402
442.435
419.948
427.31
433.613
438.775
442.807
419.463
426.919
433.239
438.402
442.434
419.94
427.302
433.6
438.757
442.787
419.427
426.914
433.235
438.395
442.426
419.695
427.067
433.361
438.514
442.543
420.008
427.341
433.617
438.762
442.786
420.085
427.378
433.631
438.763
442.783
419.473
426.945
433.254
438.407
442.436
419.897
427.527
433.855
439.008
443.033
419.489
427.039
433.366
438.525
442.555
419.948
427.613
433.951
439.108
443.134
419.587
427.021
433.313
438.459
442.485
420.051
427.657
433.97
439.117
443.141
419.649
427.052
433.325
438.46
442.48
420.176
427.757
434.054
439.191
443.211
419.489
427.076
433.423
438.594
442.628
420.016
427.732
434.096
439.268
443.303
419.516
427.113
433.458
438.627
442.661
420.033
427.752
434.114
439.285
443.319
419.587
427.208
433.552
438.718
442.75
420.094
427.818
434.175
439.344
443.377
419.809
427.485
433.831
438.994
443.026
420.254
427.974
434.326
439.49
443.522
420.171
427.863
434.207
439.367
443.393
425.715
426.882
425.881
427.074
426.257
427.483
426.851
428.055
427.799
428.842
430.194
431.538
429.119
430.292
431.125
432.601
431.975
433.472
440.151
454.828
466.837
476.277
483.112
439.872
454.715
466.889
476.405
483.356
440.298
454.93
466.908
476.33
483.155
440.064
454.86
466.966
476.499
483.418
440.596
455.132
467.047
476.433
483.24
440.355
455.053
467.098
476.595
483.498
441.06
455.443
467.265
476.597
483.379
440.784
455.337
467.295
476.743
483.623
441.723
455.884
467.579
476.84
483.587
441.337
455.698
467.55
476.939
483.791
443.296
456.957
468.351
477.43
484.079
443.061
456.849
468.368
477.552
484.287
442.5
456.394
467.942
477.118
483.822
442.127
456.204
467.906
477.207
484.01
444.055
457.527
468.776
477.758
484.354
443.951
457.505
468.847
477.915
484.583
444.804
458.109
469.219
478.107
484.651
444.776
458.164
469.333
478.292
484.912
400.451
401.7
400.526
399.225
396.902
397.891
396.894
398.008
398.173
399.328
398.161
399.166
421.395
421.006
420.112
418.723
416.864
414.633
421.508
421.135
420.281
418.974
417.27
415.274
422.229
423.462
421.793
422.968
420.793
421.839
419.22
420.029
417.131
417.724
414.71
415.337
412.236
409.95
407.958
406.284
405.022
404.158
413.145
411.071
409.197
407.616
406.404
405.601
419.9
419.313
419.421
420.226
421.731
419.509
418.92
419.025
419.828
421.333
418.611
418.017
418.117
418.917
420.42
417.214
416.612
416.705
417.498
418.998
415.344
414.729
414.809
415.593
417.088
413.096
412.461
412.52
413.288
414.776
420.012
419.423
419.53
420.334
421.838
419.637
419.046
419.15
419.951
421.455
418.778
418.182
418.281
419.079
420.58
417.463
416.859
416.949
417.74
419.239
415.748
415.13
415.207
415.988
417.482
413.735
413.098
413.155
413.921
415.407
420.735
420.149
420.258
421.063
422.568
421.969
421.384
421.493
422.298
423.803
420.297
419.709
419.815
420.618
422.123
421.473
420.886
420.992
421.795
423.299
419.293
418.7
418.802
419.602
421.104
420.339
419.746
419.848
420.647
422.149
417.713
417.111
417.204
417.998
419.498
418.521
417.919
418.011
418.804
420.303
415.611
414.996
415.076
415.859
417.355
416.202
415.584
415.661
416.441
417.935
413.172
412.536
412.595
413.361
414.849
413.797
413.157
413.211
413.973
415.458
410.672
410.007
410.036
410.779
412.254
408.349
407.64
407.625
408.333
409.791
406.302
405.533
405.458
406.118
407.551
404.552
403.704
403.554
404.156
405.555
403.201
402.276
402.059
402.607
403.976
402.279
401.312
401.063
401.587
402.941
411.582
410.918
410.947
411.69
413.166
409.476
408.775
408.767
409.481
410.941
407.561
406.813
406.759
407.437
408.878
405.932
405.132
405.028
405.667
407.087
404.674
403.828
403.683
404.289
405.691
403.845
402.977
402.812
403.404
404.798
421.274
420.64
419.497
417.851
415.724
413.206
421.386
420.769
419.668
418.11
416.156
413.918
422.103
423.33
421.414
422.571
420.155
421.168
418.311
419.069
415.941
416.473
413.188
413.697
410.528
408.041
405.991
404.519
403.776
403.705
411.586
409.397
407.552
406.201
405.436
405.256
419.779
419.193
419.301
420.107
421.613
419.145
418.557
418.665
419.47
420.976
417.999
417.408
417.514
418.317
419.823
416.348
415.752
415.852
416.652
418.157
414.213
413.609
413.701
414.495
415.997
411.682
411.064
411.142
411.926
413.424
419.89
419.303
419.41
420.215
421.72
419.272
418.684
418.79
419.594
421.099
418.168
417.576
417.68
418.482
419.986
416.605
416.007
416.105
416.903
418.407
414.642
414.035
414.124
414.916
416.416
412.392
411.771
411.846
412.627
414.123
420.61
420.024
420.134
420.939
422.445
421.838
421.253
421.363
422.169
423.674
419.919
419.333
419.441
420.247
421.753
421.077
420.491
420.6
421.405
422.91
418.658
418.068
418.174
418.978
420.483
419.671
419.082
419.188
419.992
421.496
416.809
416.214
416.315
417.115
418.62
417.567
416.972
417.072
417.872
419.376
414.43
413.827
413.919
414.714
416.217
414.962
414.358
414.449
415.243
416.744
411.665
411.049
411.129
411.914
413.413
412.174
411.558
411.637
412.421
413.918
408.985
408.346
408.403
409.17
410.661
406.468
405.796
405.821
406.563
408.041
404.374
403.652
403.628
404.332
405.79
402.83
402.036
401.943
402.592
404.019
401.993
401.113
400.943
401.531
402.923
401.841
400.893
400.663
401.203
402.566
410.041
409.399
409.453
410.218
411.706
407.826
407.154
407.178
407.919
409.395
405.943
405.23
405.213
405.923
407.382
404.544
403.78
403.713
404.383
405.822
403.727
402.909
402.793
403.423
404.84
403.508
402.65
402.497
403.097
404.497
402.693
402.888
407.769
410.531
410.557
411.278
408.781
401.182
401.889
402.083
403.777
404.48
403.779
405.928
406.115
407.276
401.196
402.049
404.302
404.628
403.297
403.766
405.411
405.775
408.069
408.221
405.997
406.109
401.959
402.53
401.499
402.712
403.172
402.041
405.196
407.442
404.634
399.972
398.749
398.367
398.711
399.785
400.777
399.682
399.334
399.771
401.066
406.204
405.54
405.573
406.322
407.803
408.992
408.358
408.421
409.192
410.685
409.012
408.372
408.427
409.192
410.682
409.742
409.112
409.178
409.952
411.446
407.228
406.578
406.624
407.383
408.869
398.777
397.704
397.405
397.829
398.913
399.546
398.524
398.276
398.746
399.906
400.211
399.275
399.057
399.607
400.974
401.623
400.695
400.52
401.062
402.373
402.811
402.04
401.97
402.639
404.077
402.017
401.17
401.033
401.647
403.054
404.304
403.576
403.545
404.244
405.699
404.47
403.719
403.668
404.35
405.796
405.667
404.954
404.938
405.647
407.107
398.812
397.743
397.447
397.874
398.982
400.241
399.348
399.167
399.745
401.13
402.651
401.897
401.842
402.522
403.967
402.999
402.266
402.231
402.927
404.381
401.607
400.814
400.724
401.375
402.804
402.105
401.341
401.275
401.947
403.387
403.799
403.085
403.068
403.777
405.238
404.181
403.484
403.484
404.208
405.676
406.493
405.815
405.833
406.569
408.043
406.657
405.995
406.028
406.777
408.258
404.392
403.684
403.673
404.387
405.85
404.517
403.823
403.826
404.551
406.02
399.393
398.251
397.907
398.288
399.386
400.564
399.563
399.292
399.794
401.134
399.38
398.379
398.095
398.559
399.771
400.927
400.05
399.88
400.467
401.858
401.468
400.662
400.557
401.196
402.618
400.216
399.308
399.106
399.666
401.042
403.585
402.871
402.854
403.564
405.025
405.873
405.205
405.232
405.977
407.456
403.007
402.276
402.243
402.94
404.395
405.516
404.086
403.43
403.516
404.303
405.987
401.347
401.458
399.448
399.389
401.591
401.818
399.553
399.72
403.485
405.776
403.518
405.564
403.757
403.679
405.209
401.264
401.392
399.351
399.273
401.548
401.788
399.485
399.701
403.572
405.984
403.605
405.727
403.848
403.727
405.362
401.277
401.425
399.329
399.227
401.606
401.873
399.5
399.744
403.672
406.614
403.719
406.283
403.984
403.866
405.846
401.758
401.914
399.775
399.659
402.125
402.452
399.969
400.26
404.316
407.45
404.348
407.102
404.606
404.483
406.582
402.652
402.809
400.682
400.56
403.034
403.425
400.885
401.193
405.233
408.186
405.259
407.919
405.499
405.447
407.418
404.274
404.427
402.344
402.22
404.632
404.982
402.549
402.846
406.71
409.415
406.717
409.17
406.931
406.867
408.667
396.52
396.525
397.793
397.768
396.587
396.663
397.865
397.984
395.69
395.135
395.741
395.221
395.783
395.918
395.42
396.397
396.427
397.688
397.642
396.526
396.644
397.795
397.938
395.531
395.108
395.617
395.23
395.725
395.911
395.455
396.343
396.404
397.652
397.579
396.55
396.713
397.803
398
395.591
395.427
395.707
395.541
395.881
396.084
395.755
396.777
396.862
398.091
397.998
397.045
397.266
398.271
398.495
396.128
396.2
396.267
396.31
396.502
396.756
396.518
397.707
397.804
399.011
398.91
398.028
398.316
399.203
399.456
397.151
397.343
397.303
397.435
397.568
397.863
397.609
399.418
399.52
400.7
400.594
399.747
400.012
400.898
401.151
398.862
398.878
399.009
398.984
399.241
399.5
399.164
415.151
414.731
413.934
413.262
412.34
411.647
410.305
409.724
410.91
410.227
412.525
411.846
413.771
413.143
414.83
414.375
411.668
410.731
410.488
409.207
409.164
407.992
408.057
406.567
416.395
418.548
415.956
417.987
415.225
417.301
414.505
416.49
412.664
413.994
411.427
413.108
415.825
414.447
409.081
406.974
407.805
406.236
406.776
404.962
405.3
403.931
411.268
409.1
409.961
408.314
413.093
410.989
421.069
422.711
420.073
421.811
419.807
421.856
418.581
420.502
418.032
420.757
416.019
418.603
414.438
417.009
412.572
415.194
410.803
410.37
408.955
408.714
407.465
406.962
405.944
405.457
411.923
412.257
414.04
413.991
407.398
407.355
405.993
406.236
404.592
404.21
403.336
403.162
410.187
410.83
408.639
409.679
414.908
417.982
415.872
419.275
417.136
420.248
417.654
421.164
413.055
416.069
414.41
417.762
411.395
414.379
413.253
416.561
424.82
428.245
425.388
428.731
423.644
426.869
424.701
427.911
421.783
424.302
423.605
426.265
413.377
409.462
416.987
419.711
422.838
410.169
414.334
418.698
421.587
424.89
408.882
412.554
416.146
419.624
423.187
431.42
433.174
432.92
434.424
429.758
431.761
431.784
433.409
426.934
429.185
429.874
431.805
411.315
413.245
415.869
418.403
420.12
422.709
423.48
425.997
428.034
430.48
409.736
411.292
413.873
416.419
417.775
420.638
421.73
424.79
426.856
430.027
411.579
414.38
409.599
412.097
407.508
408.554
405.708
406.445
413.792
417.013
415.719
419.148
407.945
410.438
406.857
409.246
404.281
405.004
403.251
403.883
412.067
415.331
410.97
414.16
418.658
422.484
424.805
429.359
420.232
424.266
425.888
430.377
417.233
420.928
423.792
428.264
415.903
419.638
422.401
426.642
434.1
435.318
437.141
434.216
435.066
436.78
433.011
434.403
436.318
433.384
434.316
436.147
430.88
432.539
434.624
432.169
433.327
435.355
415.636
418.362
421.293
421.202
423.697
426.389
425.325
427.594
430.07
428.208
430.226
432.634
431.221
432.666
435.016
413.526
416.599
419.925
419.941
423.198
426.566
424.255
427.257
430.386
427.776
430.261
433.142
431.235
432.999
435.699
404.809
403.851
403.95
402.715
406.759
405.59
405.781
404.328
404.895
403.328
404.663
403.222
404.231
402.852
403.807
402.54
402.417
403.24
401.815
402.8
402.374
401.694
401.754
400.648
403.187
401.98
401.828
400.715
401.019
400.009
401.26
400.187
401.734
400.376
402.019
400.808
401.368
400.021
401.409
400.229
400.978
399.558
400.473
399.264
400.081
399.108
399.184
398.492
402.722
401.942
401.589
400.752
404.744
404.075
403.448
402.746
400.355
399.367
401.36
400.415
400.521
399.746
399.48
398.876
402.254
401.627
401.119
400.666
399.405
398.475
398.445
397.699
399.367
398.419
398.548
398.131
400.181
399.08
399.459
398.888
398.587
397.832
397.764
397.488
397.744
397.208
397.085
396.937
402.013
402.935
400.597
401.494
401.865
402.836
400.427
401.357
401.655
402.517
400.162
400.987
403.677
406.143
402.199
401.015
399.852
406.794
404.365
403.048
401.875
400.577
405.556
403.143
401.452
400.372
399.647
404.405
406.387
402.949
404.849
404.179
406.081
402.662
404.478
403.706
405.516
402.122
403.809
407.674
409.308
405.074
406.718
403.675
405.327
402.582
404.242
401.336
402.925
406.131
407.156
403.65
404.672
401.999
403.155
401.004
402.369
400.373
401.975
401.907
402.433
400.698
400.948
404.13
404.599
402.705
402.826
399.482
400.073
400.529
401.353
399.775
399.829
398.93
398.92
401.613
401.548
400.669
400.524
398.646
399.063
397.888
398.249
398.848
399.81
398.791
400.128
399.787
400.964
399.515
401.013
398.088
398.874
398.175
399.363
397.447
398.179
397.61
398.662
409.066
411.773
414.38
408.091
411.134
413.745
408.605
411.346
414.012
407.582
410.638
413.361
407.896
410.59
413.299
406.765
409.964
412.868
411.484
414.167
417.091
408.903
411.644
414.599
407.517
410.352
413.34
406.532
409.348
412.242
405.888
409.251
412.414
408.946
411.874
415.185
406.507
409.453
412.751
405.19
408.272
411.647
404.697
407.911
411.305
405.056
408.584
412.061
400.15
401.765
405.184
411.132
400.676
402.383
405.91
411.914
399.908
401.577
405.008
411.007
400.235
402.034
405.592
411.611
399.6
401.349
404.647
410.472
399.474
401.385
404.884
410.835
399.568
401.65
405.388
411.486
399.241
401.517
405.402
411.54
398.897
400.909
404.339
410.234
398.988
401.119
404.29
409.609
399.386
401.238
404.363
409.845
399.531
401.498
404.465
409.484
398.503
400.674
404.354
410.462
398.521
400.794
404.134
409.575
398.101
400.427
404.228
410.305
398.114
400.512
403.942
409.359
400.239
401.718
404.851
410.457
400.962
402.277
404.994
409.911
400.164
401.685
404.78
410.346
400.923
402.289
404.993
409.861
400.06
401.66
404.665
410.076
400.754
402.23
404.944
409.755
400.018
401.722
404.596
409.7
400.596
402.19
404.878
409.561
400.078
401.892
404.652
409.339
402.077
403.254
405.742
409.291
403.337
404.43
406.973
410.318
401.932
403.182
405.687
409.226
403.185
404.364
406.938
410.295
401.662
403.044
405.608
409.17
402.913
404.237
406.874
410.239
401.275
402.837
405.453
409.034
402.548
404.055
406.767
410.159
400.787
402.569
405.267
408.886
402.128
403.848
406.653
410.081
399.883
402.06
405.027
408.777
401.089
403.25
406.28
409.83
400.322
402.315
405.153
408.842
401.6
403.549
406.466
409.95
399.493
401.826
404.914
408.728
400.627
402.974
406.114
409.699
399.121
401.584
404.753
408.596
400.207
402.706
405.939
409.56
420.059
427.277
433.462
438.553
442.554
420.527
427.669
433.841
438.93
442.93
420.003
427.248
433.444
438.539
442.541
420.431
427.603
433.787
438.881
442.884
419.903
427.204
433.415
438.515
442.52
420.104
427.318
433.517
438.618
442.623
420.293
427.516
433.726
438.834
442.842
420.193
427.443
433.671
438.79
442.803
419.841
427.169
433.393
438.5
442.509
420.224
427.724
433.976
439.089
443.096
419.925
427.302
433.529
438.634
442.64
420.339
427.847
434.096
439.205
443.21
419.842
427.176
433.409
438.523
442.535
420.273
427.791
434.053
439.172
443.183
419.737
427.105
433.357
438.481
442.496
420.253
427.804
434.082
439.209
443.225
420.107
427.446
433.65
438.743
442.744
420.651
428.107
434.324
439.418
443.417
420.099
427.465
433.677
438.773
442.775
420.646
428.118
434.341
439.436
443.438
420.111
427.523
433.748
438.848
442.852
420.653
428.15
434.381
439.481
443.484
420.277
427.765
434.004
439.11
443.116
420.747
428.268
434.507
439.611
443.616
420.602
428.121
434.367
439.473
443.476
439.966
440.972
439.473
440.508
438.614
439.765
437.515
438.871
436.398
437.977
434.591
436.386
435.499
437.265
433.718
435.439
432.829
434.394
450.365
461.917
471.927
480.164
486.427
450.251
461.89
472.021
480.316
486.678
450.138
461.799
471.854
480.113
486.383
450.051
461.807
471.956
480.305
486.657
449.708
461.563
471.707
480.008
486.295
449.636
461.58
471.814
480.204
486.573
449.127
461.227
471.492
479.856
486.17
449.102
461.272
471.619
480.066
486.46
448.449
460.808
471.218
479.662
486.01
448.524
460.913
471.382
479.896
486.317