/*--------------------------------*- C++ -*----------------------------------*\
  =========                 |
  \\      /  F ield         | OpenFOAM: The Open Source CFD Toolbox
   \\    /   O peration     | Website:  https://openfoam.org
    \\  /    A nd           | Version:  13
     \\/     M anipulation  |
\*---------------------------------------------------------------------------*/
FoamFile
{
    format      ascii;
    class       volScalarField;
    location    "179.831886";
    object      T;
}
// * * * * * * * * * * * * * * * * * * * * * * * * * * * * * * * * * * * * * //

dimensions      [0 0 0 1 0 0 0];

internalField   nonuniform List<scalar> 
5712
(
1100.1
1099.95
1099.7
1099.46
1099.09
1098.86
1098.25
1098.06
1098.42
1098.19
1099.08
1098.85
1099.56
1099.34
1099.92
1099.76
1098.91
1098.61
1098.51
1098.09
1097.89
1097.5
1097.52
1097.03
1100.63
1101.5
1100.47
1101.28
1100.25
1101.08
1100
1100.79
1099.39
1099.85
1098.96
1099.55
1100.57
1100.08
1098.01
1097.27
1097.61
1097.06
1097.08
1096.46
1096.6
1096.13
1098.89
1098.12
1098.45
1097.87
1099.59
1098.84
1102.5
1103.09
1102.08
1102.7
1102.08
1102.82
1101.59
1102.27
1101.47
1102.48
1100.72
1101.65
1100.14
1101.06
1099.47
1100.41
1098.69
1098.55
1098.05
1097.98
1097.33
1097.16
1096.82
1096.65
1099.23
1099.4
1099.98
1100.01
1097.51
1097.51
1097.02
1097.12
1096.37
1096.23
1095.93
1095.86
1098.61
1098.9
1098.07
1098.49
1100.38
1101.51
1100.81
1102.08
1101.19
1102.35
1101.45
1102.76
1099.71
1100.81
1100.29
1101.53
1099.12
1100.2
1099.88
1101.1
1103.91
1105.2
1104.12
1105.41
1103.52
1104.73
1103.91
1105.14
1102.86
1103.79
1103.55
1104.56
1099.59
1097.99
1101.04
1102.14
1103.32
1098.21
1099.91
1101.64
1102.81
1104.08
1097.8
1099.31
1100.77
1102.15
1103.5
1106.4
1106.99
1107.06
1107.58
1105.8
1106.47
1106.65
1107.21
1104.74
1105.5
1105.95
1106.62
1098.59
1099.2
1100.44
1101.27
1102.14
1103
1103.5
1104.35
1105.29
1106.15
1098.08
1098.57
1099.76
1100.63
1101.35
1102.34
1102.92
1103.99
1104.91
1106.03
1098.98
1099.96
1098.28
1099.14
1097.32
1097.61
1096.69
1096.85
1099.96
1101.11
1100.65
1101.87
1097.68
1098.55
1097.29
1098.12
1096.19
1096.34
1095.82
1095.93
1099.33
1100.51
1098.94
1100.09
1101.87
1103.26
1104.23
1105.92
1102.42
1103.88
1104.6
1106.25
1101.36
1102.71
1103.88
1105.53
1100.88
1102.24
1103.37
1104.94
1107.17
1107.42
1107.9
1107.29
1107.39
1107.83
1106.78
1107.1
1107.61
1107
1107.12
1107.59
1105.98
1106.4
1106.97
1106.55
1106.75
1107.28
1099.96
1100.82
1101.73
1102.16
1102.91
1103.72
1103.83
1104.47
1105.18
1105.02
1105.56
1106.24
1106.2
1106.47
1107.1
1099.27
1100.24
1101.28
1101.79
1102.8
1103.83
1103.51
1104.4
1105.32
1104.9
1105.57
1106.37
1106.18
1106.54
1107.26
1096.07
1095.76
1095.79
1095.39
1096.89
1096.5
1096.57
1096.1
1095.9
1095.26
1095.83
1095.23
1095.72
1095.15
1095.58
1095.05
1095.14
1095.41
1094.98
1095.29
1095.03
1094.81
1095.08
1094.72
1095.72
1095.31
1094.96
1094.62
1094.72
1094.39
1094.68
1094.34
1094.62
1094.05
1094.72
1094.19
1094.53
1093.95
1094.56
1094.02
1094.46
1093.82
1094.31
1093.73
1094.2
1093.68
1093.91
1093.49
1095.34
1095.07
1094.99
1094.68
1096.21
1095.97
1095.79
1095.53
1094.43
1094.06
1094.74
1094.41
1094.64
1094.34
1094.29
1094.05
1095.39
1095.15
1095
1094.82
1094.12
1093.77
1093.8
1093.5
1093.96
1093.46
1093.66
1093.36
1094.21
1093.67
1093.96
1093.61
1093.71
1093.27
1093.4
1093.14
1093.43
1093.06
1093.17
1092.96
1094.64
1094.92
1094.11
1094.4
1094.63
1094.93
1094.07
1094.37
1094.62
1094.89
1094
1094.27
1095.61
1096.63
1094.97
1094.46
1093.92
1096.84
1095.83
1095.23
1094.73
1094.16
1096.44
1095.44
1094.73
1094.25
1093.86
1095.4
1096.06
1094.89
1095.53
1095.36
1095.99
1094.81
1095.43
1095.27
1095.86
1094.66
1095.23
1097.11
1097.62
1096.04
1096.56
1095.43
1095.96
1094.96
1095.5
1094.42
1094.97
1096.6
1096.9
1095.59
1095.89
1094.89
1095.26
1094.45
1094.89
1094.11
1094.66
1095.01
1095.12
1094.61
1094.61
1095.94
1096.02
1095.46
1095.39
1094.07
1094.2
1094.41
1094.64
1094.3
1094.21
1094.01
1093.89
1095.09
1094.94
1094.75
1094.57
1093.79
1093.85
1093.53
1093.56
1093.73
1094.02
1093.58
1094.03
1094.05
1094.41
1093.83
1094.33
1093.48
1093.69
1093.37
1093.76
1093.26
1093.45
1093.18
1093.52
1096.96
1097.86
1098.7
1096.64
1097.65
1098.49
1096.84
1097.75
1098.61
1096.49
1097.51
1098.39
1096.66
1097.55
1098.42
1096.25
1097.32
1098.26
1098.31
1099.17
1100.09
1097.26
1098.16
1099.11
1096.68
1097.61
1098.58
1096.27
1097.2
1098.13
1095.99
1097.11
1098.14
1097.45
1098.39
1099.44
1096.47
1097.42
1098.48
1095.92
1096.93
1098.02
1095.67
1096.74
1097.84
1095.73
1096.91
1098.04
1093.81
1094.2
1095.22
1097.1
1093.98
1094.4
1095.45
1097.35
1093.74
1094.15
1095.17
1097.06
1093.85
1094.29
1095.36
1097.26
1093.64
1094.07
1095.05
1096.89
1093.6
1094.08
1095.13
1097.01
1093.63
1094.17
1095.29
1097.21
1093.52
1094.12
1095.29
1097.23
1093.42
1093.93
1094.95
1096.81
1093.45
1094
1094.94
1096.61
1093.58
1094.04
1094.96
1096.69
1093.63
1094.12
1094.99
1096.57
1093.29
1093.85
1094.95
1096.88
1093.29
1093.89
1094.88
1096.6
1093.15
1093.77
1094.91
1096.83
1093.16
1093.79
1094.82
1096.52
1093.84
1094.19
1095.12
1096.88
1094.08
1094.37
1095.17
1096.71
1093.82
1094.18
1095.1
1096.85
1094.07
1094.38
1095.17
1096.69
1093.79
1094.17
1095.06
1096.76
1094.02
1094.36
1095.15
1096.66
1093.79
1094.19
1095.04
1096.64
1093.97
1094.35
1095.13
1096.6
1093.81
1094.25
1095.06
1096.52
1094.45
1094.69
1095.41
1096.51
1094.86
1095.07
1095.8
1096.84
1094.4
1094.67
1095.39
1096.49
1094.81
1095.05
1095.79
1096.83
1094.32
1094.62
1095.36
1096.47
1094.73
1095.01
1095.77
1096.81
1094.2
1094.56
1095.31
1096.42
1094.62
1094.95
1095.73
1096.78
1094.04
1094.47
1095.25
1096.38
1094.48
1094.89
1095.7
1096.76
1093.74
1094.3
1095.17
1096.34
1094.14
1094.69
1095.57
1096.67
1093.89
1094.39
1095.21
1096.36
1094.31
1094.79
1095.64
1096.71
1093.61
1094.22
1095.13
1096.32
1093.98
1094.6
1095.52
1096.63
1093.49
1094.14
1095.08
1096.28
1093.84
1094.51
1095.46
1096.58
1099.95
1102.25
1104.2
1105.8
1107.02
1100.09
1102.36
1104.32
1105.91
1107.13
1099.93
1102.24
1104.2
1105.79
1107.02
1100.07
1102.35
1104.3
1105.89
1107.12
1099.9
1102.22
1104.19
1105.78
1107.01
1099.96
1102.26
1104.22
1105.82
1107.04
1100.02
1102.32
1104.28
1105.88
1107.11
1099.99
1102.29
1104.26
1105.86
1107.09
1099.88
1102.21
1104.18
1105.78
1107.01
1100
1102.38
1104.36
1105.96
1107.18
1099.91
1102.25
1104.22
1105.82
1107.05
1100.03
1102.42
1104.39
1105.99
1107.22
1099.88
1102.21
1104.19
1105.78
1107.02
1100.01
1102.4
1104.38
1105.98
1107.21
1099.84
1102.19
1104.17
1105.77
1107
1100
1102.4
1104.39
1105.99
1107.22
1099.97
1102.3
1104.26
1105.85
1107.08
1100.14
1102.5
1104.47
1106.06
1107.28
1099.96
1102.3
1104.27
1105.86
1107.09
1100.13
1102.51
1104.47
1106.06
1107.28
1099.97
1102.32
1104.29
1105.88
1107.11
1100.13
1102.52
1104.48
1106.07
1107.3
1100.02
1102.4
1104.37
1105.96
1107.19
1100.16
1102.55
1104.52
1106.11
1107.34
1100.12
1102.5
1104.48
1106.07
1107.3
1109.81
1110.18
1109.64
1110.02
1109.34
1109.76
1108.95
1109.44
1108.56
1109.14
1107.96
1108.62
1108.27
1108.91
1107.65
1108.29
1107.33
1107.91
1113.89
1118.35
1122.1
1125.02
1127.02
1113.82
1118.32
1122.11
1125.04
1127.08
1113.81
1118.31
1122.07
1125
1127
1113.76
1118.29
1122.08
1125.04
1127.07
1113.66
1118.23
1122.02
1124.96
1126.97
1113.61
1118.21
1122.03
1125
1127.03
1113.46
1118.11
1121.94
1124.9
1126.91
1113.42
1118.1
1121.96
1124.94
1126.99
1113.22
1117.95
1121.83
1124.82
1126.85
1113.22
1117.97
1121.87
1124.87
1126.93
1112.71
1117.57
1121.55
1124.59
1126.65
1112.76
1117.63
1121.61
1124.67
1126.74
1112.96
1117.77
1121.7
1124.71
1126.75
1113
1117.81
1121.75
1124.79
1126.85
1112.45
1117.37
1121.39
1124.47
1126.53
1112.48
1117.41
1121.45
1124.53
1126.62
1112.18
1117.17
1121.23
1124.33
1126.41
1112.18
1117.19
1121.26
1124.38
1126.48
1095.14
1095.72
1096.23
1095.56
1096.42
1096.33
1096.31
1096.18
1096.5
1096.33
1097.28
1097.08
1097.69
1097.47
1097.1
1096.92
1096.87
1096.75
1096.83
1096.73
1095.59
1095.44
1097.18
1097.88
1098.1
1098.17
1097.53
1097.22
1098.03
1097.08
1098.72
1099.77
1097.26
1097.56
1098.37
1097.48
1097.84
1097.91
1096.55
1096.49
1096.93
1096.78
1096.57
1096.4
1096.6
1096.85
1097.76
1097.59
1097.25
1097.08
1095.87
1095.65
1096.04
1095.85
1096.12
1096.18
1096.66
1097.26
1096.64
1094.53
1093.99
1093.76
1093.79
1094.09
1094.65
1094.2
1094.01
1094.08
1094.47
1096.66
1096.41
1096.39
1096.6
1097.06
1097.38
1097.15
1097.15
1097.38
1097.84
1097.59
1097.36
1097.34
1097.56
1098.02
1097.66
1097.44
1097.44
1097.66
1098.13
1097.01
1096.77
1096.76
1096.97
1097.43
1096.07
1095.36
1095
1094.92
1095.13
1096.8
1096.04
1095.65
1095.58
1095.82
1096.26
1095.73
1095.46
1095.47
1095.82
1097.59
1096.86
1096.5
1096.46
1096.76
1098.66
1097.92
1097.55
1097.51
1097.81
1096.62
1096.24
1096.09
1096.2
1096.61
1096.81
1096.33
1096.1
1096.15
1096.52
1097.64
1097.18
1096.96
1097.02
1097.4
1096.88
1096.55
1096.44
1096.58
1097
1097.2
1096.83
1096.68
1096.8
1097.21
1097.31
1096.99
1096.89
1097.05
1097.47
1095.49
1094.9
1094.6
1094.57
1094.82
1095.77
1095.33
1095.12
1095.19
1095.57
1096.32
1095.98
1095.86
1095.99
1096.41
1096.19
1095.88
1095.79
1095.95
1096.38
1095.94
1095.58
1095.44
1095.57
1095.98
1095.8
1095.48
1095.38
1095.53
1095.96
1096.04
1095.76
1095.7
1095.89
1096.33
1096.3
1096.02
1095.97
1096.16
1096.6
1097.21
1096.94
1096.89
1097.07
1097.52
1097.05
1096.8
1096.77
1096.97
1097.42
1096.68
1096.38
1096.3
1096.46
1096.9
1096.53
1096.25
1096.19
1096.37
1096.81
1094.85
1094.29
1094.04
1094.05
1094.33
1094.91
1094.49
1094.31
1094.39
1094.79
1095.19
1094.69
1094.45
1094.48
1094.8
1095.2
1094.83
1094.69
1094.81
1095.22
1095.5
1095.16
1095.05
1095.19
1095.61
1095.47
1095.05
1094.86
1094.93
1095.32
1096.09
1095.81
1095.75
1095.93
1096.37
1096.73
1096.47
1096.44
1096.64
1097.09
1096.07
1095.76
1095.68
1095.85
1096.28
1095.51
1095.83
1095.53
1095.89
1094.73
1095.11
1094.72
1095.05
1095.56
1095.6
1095.91
1095.84
1094.74
1094.76
1095.09
1094.99
1096.32
1097.12
1096.61
1097.38
1096.33
1097.05
1096.67
1097.38
1096.68
1096.38
1096.51
1096.31
1096.94
1097.25
1096.33
1096.68
1096.17
1096.56
1095.54
1095.91
1095.31
1095.68
1097.09
1097.47
1096.85
1097.3
1097.67
1098.13
1097.86
1098.49
1098.08
1098.68
1097.8
1098.56
1098.09
1098.76
1097.67
1098.7
1097.87
1098.78
1098.26
1099.19
1098.8
1099.75
1095.86
1096.06
1096.02
1096.25
1094.84
1094.9
1095.01
1095.07
1096.99
1097.58
1096.84
1097.38
1096.28
1096.49
1096.62
1096.78
1095.26
1095.28
1095.58
1095.54
1097.25
1097.82
1097.62
1098.13
1097.99
1099.12
1098.95
1100.23
1097.89
1099.12
1098.78
1100.13
1098.25
1099.33
1099.18
1100.43
1098.64
1099.71
1099.51
1100.74
1097.91
1098.28
1098.62
1099.21
1097.85
1098.16
1098.72
1099.29
1097.74
1097.91
1098.91
1099.38
1095.81
1094.76
1096.85
1097.95
1099.36
1094.73
1095.73
1096.76
1097.92
1099.6
1094.82
1095.95
1097.25
1098.67
1100.14
1098.89
1099.16
1100.76
1101.31
1098.61
1098.88
1100.65
1101.19
1098.19
1098.41
1100.51
1101.06
1094.75
1094.89
1095.82
1095.99
1096.93
1097.11
1098.28
1098.51
1100.69
1101.27
1094.82
1094.97
1096.06
1096.43
1097.48
1097.95
1099.12
1099.68
1101.33
1102.05
1096.36
1096.99
1096.53
1097.18
1094.94
1095
1095.09
1095.1
1098.13
1099.06
1097.92
1098.8
1096.68
1097.42
1096.96
1097.76
1095.26
1095.32
1095.52
1095.6
1098.28
1099.33
1098.6
1099.71
1100.04
1101.25
1102.47
1104
1099.72
1100.89
1102.03
1103.46
1100.29
1101.54
1102.84
1104.42
1100.51
1101.85
1103.04
1104.59
1099.26
1099.5
1100.94
1100.97
1098.99
1099.25
1100.87
1100.87
1098.58
1098.96
1100.8
1100.82
1095.2
1095.74
1096.32
1096.83
1097.4
1097.84
1098.74
1099.15
1100.93
1100.92
1095.27
1095.86
1096.93
1097.47
1098.39
1098.78
1099.85
1100.03
1101.36
1101.24
1093.45
1093.43
1093.78
1093.64
1094.03
1094
1094.38
1094.23
1093.05
1092.76
1093.36
1093.06
1093.06
1092.79
1093.4
1093.11
1093.34
1093.05
1093.3
1093.08
1092.85
1093.13
1093.95
1094.32
1094.54
1094.9
1093.75
1094.17
1093.62
1094
1093.52
1093.91
1092.59
1092.48
1092.88
1092.76
1092.59
1092.45
1092.9
1092.74
1092.61
1092.42
1092.85
1092.62
1093.2
1092.94
1093.54
1093.21
1093.33
1093.3
1093.48
1093.42
1093.98
1093.97
1094.15
1094.11
1093.04
1092.95
1092.9
1092.86
1093.71
1093.58
1093.98
1093.79
1094.39
1094.3
1094.68
1094.53
1093.26
1093.09
1093.51
1093.27
1092.72
1092.51
1092.68
1092.57
1092.6
1092.43
1092.61
1092.52
1092.93
1092.66
1092.8
1092.66
1093.17
1092.86
1092.97
1092.79
1092.46
1092.51
1092.37
1092.45
1092.48
1092.54
1092.37
1092.46
1092.54
1092.59
1092.39
1092.47
1093.27
1093.91
1092.85
1092.57
1092.44
1093.91
1093.3
1092.89
1092.61
1092.49
1093.9
1093.26
1092.83
1092.59
1092.52
1092.72
1093.09
1092.7
1093.1
1092.72
1093.06
1092.68
1093.06
1092.72
1093.03
1092.66
1093.01
1093.92
1094.06
1093.3
1093.48
1092.93
1093.15
1092.69
1092.96
1092.63
1092.95
1093.86
1093.91
1093.23
1093.32
1092.84
1092.99
1092.65
1092.88
1092.64
1092.96
1093.21
1093.19
1093.34
1093.25
1093.87
1093.78
1094.02
1093.86
1092.94
1092.98
1092.84
1092.93
1093.55
1093.41
1093.76
1093.62
1094.24
1094.03
1094.47
1094.27
1093.11
1093.12
1093.3
1093.32
1092.75
1092.92
1092.77
1093.08
1092.67
1092.89
1092.69
1093.02
1092.88
1093.04
1092.88
1093.19
1093.05
1093.22
1093.02
1093.34
1093.54
1093.96
1093.68
1094.17
1093.48
1093.93
1093.63
1094.16
1093.43
1093.93
1093.56
1094.17
1094.36
1094.91
1093.82
1094.38
1093.51
1094.07
1093.35
1093.93
1093.51
1094.23
1094.16
1094.79
1093.61
1094.27
1093.36
1094.05
1093.34
1094.06
1093.58
1094.39
1092.72
1093.47
1094.72
1096.76
1092.98
1093.72
1094.99
1097.03
1092.71
1093.45
1094.7
1096.75
1092.95
1093.69
1094.95
1096.98
1092.69
1093.43
1094.62
1096.61
1092.85
1093.57
1094.78
1096.77
1093.13
1093.82
1095.05
1097.05
1093.34
1094
1095.2
1097.17
1092.76
1093.48
1094.64
1096.6
1092.89
1093.62
1094.66
1096.41
1092.72
1093.46
1094.56
1096.42
1092.87
1093.6
1094.63
1096.32
1092.87
1093.57
1094.75
1096.74
1092.95
1093.65
1094.71
1096.46
1093.01
1093.67
1094.84
1096.78
1093.04
1093.71
1094.76
1096.48
1092.64
1093.38
1094.57
1096.51
1092.76
1093.5
1094.57
1096.3
1092.66
1093.4
1094.57
1096.5
1092.78
1093.52
1094.59
1096.3
1092.7
1093.44
1094.56
1096.43
1092.81
1093.56
1094.61
1096.29
1092.77
1093.52
1094.58
1096.33
1092.86
1093.6
1094.63
1096.26
1092.88
1093.63
1094.63
1096.23
1093.03
1093.77
1094.78
1096.04
1093.4
1094.13
1095.16
1096.33
1093.03
1093.77
1094.78
1096.03
1093.4
1094.14
1095.16
1096.33
1093.04
1093.78
1094.79
1096.04
1093.4
1094.15
1095.18
1096.34
1093.05
1093.79
1094.79
1096.04
1093.41
1094.16
1095.19
1096.35
1093.06
1093.82
1094.8
1096.04
1093.43
1094.19
1095.21
1096.37
1093.18
1093.92
1094.9
1096.12
1093.51
1094.26
1095.27
1096.43
1093.11
1093.86
1094.85
1096.07
1093.45
1094.22
1095.23
1096.39
1093.27
1093.99
1094.96
1096.18
1093.6
1094.34
1095.33
1096.48
1093.37
1094.06
1095.02
1096.23
1093.71
1094.42
1095.4
1096.53
1099.75
1102.12
1104.13
1105.74
1106.98
1099.9
1102.25
1104.24
1105.86
1107.09
1099.75
1102.13
1104.13
1105.75
1106.98
1099.9
1102.25
1104.24
1105.85
1107.09
1099.74
1102.13
1104.13
1105.74
1106.98
1099.83
1102.17
1104.17
1105.78
1107.02
1099.92
1102.26
1104.24
1105.85
1107.09
1099.95
1102.27
1104.25
1105.85
1107.09
1099.76
1102.14
1104.13
1105.75
1106.98
1099.89
1102.32
1104.32
1105.93
1107.16
1099.76
1102.16
1104.17
1105.78
1107.02
1099.9
1102.34
1104.35
1105.96
1107.19
1099.79
1102.16
1104.15
1105.76
1107
1099.94
1102.36
1104.35
1105.96
1107.19
1099.81
1102.17
1104.16
1105.76
1107
1099.98
1102.39
1104.38
1105.98
1107.21
1099.76
1102.17
1104.18
1105.8
1107.04
1099.92
1102.38
1104.39
1106
1107.24
1099.77
1102.19
1104.19
1105.81
1107.05
1099.93
1102.38
1104.39
1106.01
1107.24
1099.79
1102.22
1104.22
1105.84
1107.08
1099.95
1102.4
1104.41
1106.03
1107.26
1099.86
1102.3
1104.31
1105.92
1107.16
1100
1102.45
1104.46
1106.07
1107.31
1099.97
1102.42
1104.42
1106.03
1107.27
1104.71
1105.13
1104.76
1105.2
1104.9
1105.35
1105.12
1105.56
1105.47
1105.85
1106.36
1106.86
1105.96
1106.4
1106.71
1107.26
1107.02
1107.58
1110.18
1115.71
1120.13
1123.46
1125.66
1110.06
1115.64
1120.12
1123.47
1125.71
1110.23
1115.75
1120.16
1123.48
1125.67
1110.13
1115.7
1120.15
1123.51
1125.73
1110.35
1115.82
1120.21
1123.52
1125.71
1110.24
1115.77
1120.21
1123.55
1125.77
1110.52
1115.94
1120.3
1123.59
1125.76
1110.4
1115.88
1120.28
1123.61
1125.82
1110.76
1116.11
1120.42
1123.68
1125.85
1110.6
1116.01
1120.38
1123.69
1125.89
1111.35
1116.52
1120.72
1123.92
1126.05
1111.25
1116.45
1120.7
1123.93
1126.09
1111.05
1116.3
1120.56
1123.79
1125.95
1110.9
1116.21
1120.52
1123.79
1125.98
1111.64
1116.73
1120.89
1124.06
1126.17
1111.58
1116.7
1120.89
1124.08
1126.22
1111.92
1116.95
1121.06
1124.2
1126.29
1111.89
1116.95
1121.08
1124.23
1126.35
1094.66
1095.21
1094.81
1094.24
1093.46
1093.78
1093.46
1093.82
1094.03
1094.41
1094.03
1094.36
1100.46
1100.36
1100.11
1099.71
1099.17
1098.52
1100.5
1100.4
1100.17
1099.79
1099.3
1098.72
1100.72
1101.1
1100.6
1100.97
1100.32
1100.65
1099.87
1100.13
1099.26
1099.46
1098.56
1098.77
1097.83
1097.17
1096.6
1096.13
1095.78
1095.53
1098.11
1097.51
1096.97
1096.52
1096.16
1095.92
1099.99
1099.81
1099.84
1100.09
1100.56
1099.89
1099.7
1099.74
1099.98
1100.45
1099.64
1099.45
1099.48
1099.73
1100.19
1099.23
1099.04
1099.07
1099.31
1099.78
1098.69
1098.49
1098.51
1098.75
1099.22
1098.03
1097.82
1097.83
1098.07
1098.53
1100.03
1099.85
1099.88
1100.13
1100.6
1099.93
1099.75
1099.78
1100.03
1100.5
1099.69
1099.5
1099.53
1099.78
1100.25
1099.31
1099.12
1099.15
1099.39
1099.86
1098.82
1098.62
1098.63
1098.88
1099.34
1098.23
1098.02
1098.03
1098.26
1098.73
1100.25
1100.06
1100.1
1100.35
1100.82
1100.63
1100.45
1100.48
1100.73
1101.2
1100.13
1099.95
1099.98
1100.23
1100.7
1100.5
1100.32
1100.35
1100.6
1101.06
1099.85
1099.66
1099.69
1099.94
1100.41
1100.18
1099.99
1100.02
1100.27
1100.74
1099.39
1099.2
1099.23
1099.47
1099.94
1099.65
1099.46
1099.49
1099.73
1100.2
1098.78
1098.58
1098.6
1098.84
1099.31
1098.98
1098.78
1098.8
1099.04
1099.5
1098.06
1097.85
1097.86
1098.1
1098.57
1098.28
1098.07
1098.08
1098.31
1098.77
1097.32
1097.1
1097.09
1097.32
1097.78
1096.64
1096.4
1096.37
1096.58
1097.04
1096.05
1095.77
1095.72
1095.91
1096.36
1095.54
1095.23
1095.14
1095.31
1095.74
1095.15
1094.8
1094.68
1094.82
1095.24
1094.87
1094.49
1094.36
1094.49
1094.9
1097.6
1097.38
1097.37
1097.6
1098.06
1096.98
1096.74
1096.72
1096.93
1097.39
1096.42
1096.16
1096.12
1096.32
1096.77
1095.95
1095.66
1095.59
1095.77
1096.21
1095.57
1095.26
1095.17
1095.34
1095.77
1095.31
1094.99
1094.89
1095.05
1095.48
1100.41
1100.2
1099.85
1099.35
1098.7
1097.94
1100.45
1100.25
1099.91
1099.43
1098.84
1098.18
1100.66
1101.04
1100.44
1100.8
1100.05
1100.37
1099.49
1099.73
1098.77
1098.94
1097.94
1098.11
1097.15
1096.42
1095.85
1095.46
1095.32
1095.36
1097.49
1096.85
1096.33
1095.97
1095.8
1095.79
1099.94
1099.76
1099.79
1100.04
1100.51
1099.74
1099.55
1099.58
1099.83
1100.3
1099.38
1099.19
1099.22
1099.47
1099.94
1098.87
1098.68
1098.71
1098.96
1099.43
1098.22
1098.03
1098.05
1098.3
1098.77
1097.46
1097.25
1097.27
1097.51
1097.98
1099.98
1099.8
1099.83
1100.08
1100.55
1099.78
1099.6
1099.63
1099.88
1100.35
1099.44
1099.25
1099.28
1099.53
1100
1098.96
1098.77
1098.79
1099.04
1099.51
1098.36
1098.17
1098.19
1098.43
1098.91
1097.69
1097.48
1097.5
1097.74
1098.21
1100.2
1100.01
1100.04
1100.29
1100.76
1100.58
1100.39
1100.43
1100.68
1101.14
1099.97
1099.79
1099.82
1100.07
1100.54
1100.33
1100.15
1100.18
1100.43
1100.9
1099.58
1099.39
1099.42
1099.68
1100.15
1099.9
1099.71
1099.74
1099.99
1100.46
1099.01
1098.82
1098.85
1099.1
1099.57
1099.25
1099.06
1099.09
1099.34
1099.81
1098.29
1098.09
1098.12
1098.37
1098.84
1098.46
1098.27
1098.29
1098.54
1099.01
1097.45
1097.25
1097.27
1097.51
1097.98
1097.62
1097.42
1097.43
1097.68
1098.15
1096.65
1096.43
1096.44
1096.68
1097.15
1095.9
1095.67
1095.66
1095.89
1096.35
1095.3
1095.05
1095.01
1095.22
1095.68
1094.89
1094.6
1094.53
1094.71
1095.16
1094.69
1094.36
1094.26
1094.41
1094.84
1094.7
1094.34
1094.21
1094.34
1094.76
1096.98
1096.77
1096.77
1097.01
1097.48
1096.33
1096.1
1096.09
1096.32
1096.78
1095.8
1095.54
1095.52
1095.73
1096.18
1095.41
1095.14
1095.08
1095.28
1095.73
1095.21
1094.91
1094.83
1095.01
1095.45
1095.19
1094.86
1094.77
1094.93
1095.37
1095.3
1095.21
1096.33
1097.14
1097.19
1097.38
1096.63
1094.81
1095.04
1094.91
1095.58
1095.5
1095.38
1095.9
1096
1096.31
1094.76
1094.82
1095.4
1095.46
1095.11
1095.21
1095.66
1095.76
1096.49
1096.5
1095.88
1095.88
1095.02
1095.02
1094.75
1094.97
1095.06
1094.81
1095.6
1096.25
1095.45
1094.26
1093.74
1093.53
1093.57
1093.89
1094.44
1094
1093.81
1093.9
1094.29
1095.81
1095.59
1095.58
1095.81
1096.28
1096.65
1096.43
1096.44
1096.68
1097.15
1096.68
1096.47
1096.47
1096.71
1097.18
1096.88
1096.67
1096.68
1096.92
1097.39
1096.13
1095.9
1095.91
1096.14
1096.61
1093.89
1093.42
1093.24
1093.31
1093.62
1094.15
1093.7
1093.54
1093.63
1093.97
1094.23
1093.86
1093.72
1093.85
1094.27
1094.78
1094.38
1094.25
1094.37
1094.77
1094.92
1094.64
1094.58
1094.76
1095.21
1094.76
1094.43
1094.34
1094.49
1094.93
1095.35
1095.09
1095.05
1095.25
1095.71
1095.44
1095.17
1095.12
1095.31
1095.76
1095.77
1095.52
1095.48
1095.69
1096.15
1093.86
1093.4
1093.22
1093.29
1093.62
1094.18
1093.83
1093.71
1093.86
1094.28
1094.84
1094.56
1094.51
1094.7
1095.16
1094.91
1094.64
1094.6
1094.81
1095.26
1094.53
1094.23
1094.16
1094.34
1094.79
1094.64
1094.36
1094.31
1094.5
1094.95
1095.12
1094.86
1094.83
1095.04
1095.5
1095.23
1094.99
1094.96
1095.18
1095.64
1095.97
1095.73
1095.72
1095.94
1096.4
1095.98
1095.75
1095.75
1095.97
1096.44
1095.34
1095.09
1095.06
1095.27
1095.73
1095.35
1095.1
1095.08
1095.3
1095.76
1094.04
1093.56
1093.36
1093.42
1093.74
1094.31
1093.91
1093.76
1093.88
1094.29
1093.98
1093.56
1093.4
1093.49
1093.86
1094.35
1094.01
1093.91
1094.06
1094.49
1094.47
1094.17
1094.09
1094.27
1094.72
1094.16
1093.81
1093.68
1093.82
1094.25
1095.06
1094.8
1094.77
1094.98
1095.44
1095.73
1095.5
1095.49
1095.72
1096.18
1094.9
1094.64
1094.6
1094.8
1095.26
1095.7
1095.25
1095.07
1095.14
1095.44
1096.02
1095.4
1095.44
1094.61
1094.6
1095.48
1095.55
1094.64
1094.68
1096.25
1097.14
1096.26
1097.06
1096.34
1096.3
1096.92
1095.38
1095.42
1094.58
1094.56
1095.46
1095.53
1094.61
1094.67
1096.3
1097.24
1096.31
1097.13
1096.38
1096.32
1096.98
1095.39
1095.44
1094.57
1094.55
1095.48
1095.55
1094.61
1094.67
1096.35
1097.48
1096.35
1097.34
1096.43
1096.36
1097.15
1095.55
1095.6
1094.72
1094.69
1095.65
1095.73
1094.76
1094.82
1096.57
1097.77
1096.56
1097.62
1096.63
1096.55
1097.39
1095.84
1095.88
1095.01
1094.98
1095.93
1096.03
1095.05
1095.11
1096.86
1097.98
1096.85
1097.87
1096.9
1096.84
1097.64
1096.36
1096.39
1095.54
1095.51
1096.43
1096.52
1095.58
1095.63
1097.32
1098.35
1097.3
1098.24
1097.34
1097.28
1098.02
1093.34
1093.33
1093.9
1093.9
1093.35
1093.36
1093.92
1093.94
1092.93
1092.62
1092.95
1092.67
1092.95
1093.01
1092.76
1093.3
1093.3
1093.87
1093.86
1093.33
1093.35
1093.89
1093.92
1092.87
1092.62
1092.9
1092.68
1092.93
1093
1092.78
1093.28
1093.29
1093.86
1093.84
1093.33
1093.37
1093.89
1093.93
1092.9
1092.73
1092.94
1092.79
1092.99
1093.06
1092.88
1093.42
1093.44
1094
1093.98
1093.49
1093.54
1094.04
1094.08
1093.08
1093
1093.13
1093.05
1093.19
1093.28
1093.13
1093.73
1093.75
1094.3
1094.27
1093.81
1093.88
1094.34
1094.38
1093.42
1093.39
1093.47
1093.43
1093.55
1093.65
1093.5
1094.29
1094.31
1094.84
1094.82
1094.37
1094.43
1094.88
1094.92
1093.99
1093.89
1094.03
1093.94
1094.1
1094.18
1094.01
1100.12
1099.98
1099.7
1099.47
1099.1
1098.86
1098.25
1098.06
1098.42
1098.2
1099.08
1098.86
1099.56
1099.35
1099.95
1099.8
1098.91
1098.61
1098.51
1098.09
1097.89
1097.5
1097.52
1097.03
1100.65
1101.51
1100.49
1101.3
1100.25
1101.09
1100
1100.79
1099.39
1099.85
1098.97
1099.55
1100.57
1100.08
1098.01
1097.27
1097.61
1097.06
1097.08
1096.46
1096.6
1096.13
1098.89
1098.12
1098.45
1097.87
1099.59
1098.85
1102.51
1103.1
1102.1
1102.72
1102.08
1102.82
1101.59
1102.27
1101.47
1102.48
1100.72
1101.65
1100.14
1101.06
1099.48
1100.41
1098.69
1098.55
1098.05
1097.98
1097.33
1097.16
1096.83
1096.65
1099.23
1099.41
1099.98
1100.01
1097.51
1097.51
1097.02
1097.12
1096.37
1096.23
1095.93
1095.86
1098.61
1098.9
1098.07
1098.5
1100.38
1101.51
1100.81
1102.08
1101.2
1102.35
1101.45
1102.76
1099.72
1100.81
1100.29
1101.54
1099.12
1100.2
1099.88
1101.1
1103.92
1105.22
1104.13
1105.42
1103.52
1104.73
1103.91
1105.14
1102.86
1103.79
1103.55
1104.56
1099.59
1097.99
1101.04
1102.14
1103.32
1098.22
1099.91
1101.64
1102.81
1104.09
1097.8
1099.31
1100.77
1102.15
1103.5
1106.42
1107.01
1107.07
1107.59
1105.8
1106.47
1106.65
1107.21
1104.75
1105.5
1105.95
1106.62
1098.59
1099.2
1100.44
1101.27
1102.14
1103
1103.5
1104.35
1105.29
1106.15
1098.08
1098.57
1099.76
1100.63
1101.35
1102.34
1102.92
1103.99
1104.91
1106.03
1098.98
1099.96
1098.28
1099.15
1097.32
1097.61
1096.69
1096.85
1099.96
1101.11
1100.65
1101.87
1097.68
1098.55
1097.29
1098.12
1096.19
1096.34
1095.82
1095.93
1099.33
1100.51
1098.94
1100.09
1101.87
1103.26
1104.23
1105.92
1102.42
1103.88
1104.6
1106.25
1101.36
1102.71
1103.88
1105.54
1100.88
1102.24
1103.37
1104.94
1107.18
1107.44
1107.91
1107.3
1107.4
1107.84
1106.78
1107.1
1107.61
1107
1107.12
1107.6
1105.98
1106.4
1106.97
1106.55
1106.75
1107.28
1099.96
1100.82
1101.73
1102.16
1102.91
1103.72
1103.83
1104.47
1105.18
1105.02
1105.56
1106.24
1106.2
1106.47
1107.1
1099.27
1100.24
1101.28
1101.79
1102.8
1103.83
1103.51
1104.4
1105.32
1104.9
1105.57
1106.37
1106.18
1106.54
1107.26
1096.07
1095.76
1095.79
1095.39
1096.89
1096.51
1096.57
1096.1
1095.91
1095.27
1095.84
1095.25
1095.72
1095.15
1095.58
1095.05
1095.14
1095.41
1094.98
1095.29
1095.03
1094.81
1095.08
1094.72
1095.72
1095.31
1094.96
1094.62
1094.72
1094.39
1094.68
1094.34
1094.63
1094.05
1094.74
1094.2
1094.54
1093.95
1094.56
1094.02
1094.46
1093.82
1094.31
1093.73
1094.2
1093.68
1093.91
1093.49
1095.34
1095.07
1094.99
1094.68
1096.21
1095.97
1095.79
1095.53
1094.43
1094.07
1094.74
1094.41
1094.64
1094.34
1094.29
1094.05
1095.39
1095.15
1095
1094.82
1094.12
1093.77
1093.8
1093.5
1093.96
1093.46
1093.66
1093.36
1094.21
1093.67
1093.96
1093.61
1093.71
1093.27
1093.4
1093.14
1093.43
1093.06
1093.17
1092.96
1094.65
1094.92
1094.11
1094.4
1094.63
1094.93
1094.07
1094.37
1094.62
1094.89
1094
1094.28
1095.61
1096.63
1094.97
1094.46
1093.93
1096.84
1095.83
1095.23
1094.73
1094.16
1096.44
1095.44
1094.73
1094.25
1093.86
1095.4
1096.07
1094.89
1095.53
1095.36
1095.99
1094.81
1095.43
1095.27
1095.86
1094.66
1095.24
1097.11
1097.62
1096.04
1096.56
1095.43
1095.96
1094.96
1095.5
1094.42
1094.97
1096.6
1096.91
1095.59
1095.89
1094.89
1095.26
1094.45
1094.89
1094.11
1094.66
1095.01
1095.12
1094.61
1094.61
1095.94
1096.02
1095.46
1095.39
1094.07
1094.2
1094.41
1094.64
1094.3
1094.22
1094.01
1093.89
1095.09
1094.94
1094.75
1094.57
1093.79
1093.85
1093.53
1093.56
1093.73
1094.02
1093.58
1094.03
1094.05
1094.41
1093.83
1094.33
1093.48
1093.69
1093.37
1093.76
1093.26
1093.45
1093.18
1093.52
1096.97
1097.86
1098.7
1096.64
1097.65
1098.5
1096.84
1097.75
1098.61
1096.49
1097.51
1098.39
1096.66
1097.55
1098.42
1096.25
1097.32
1098.26
1098.31
1099.17
1100.1
1097.26
1098.16
1099.11
1096.68
1097.61
1098.58
1096.27
1097.2
1098.13
1095.99
1097.11
1098.14
1097.46
1098.39
1099.44
1096.47
1097.42
1098.48
1095.92
1096.93
1098.02
1095.67
1096.74
1097.84
1095.73
1096.91
1098.04
1093.82
1094.21
1095.23
1097.1
1093.99
1094.41
1095.46
1097.35
1093.74
1094.15
1095.17
1097.06
1093.85
1094.29
1095.36
1097.26
1093.64
1094.07
1095.05
1096.89
1093.6
1094.08
1095.13
1097.01
1093.63
1094.17
1095.29
1097.21
1093.52
1094.12
1095.29
1097.23
1093.42
1093.93
1094.95
1096.81
1093.45
1094
1094.94
1096.61
1093.58
1094.04
1094.96
1096.69
1093.63
1094.12
1094.99
1096.57
1093.29
1093.85
1094.95
1096.88
1093.29
1093.89
1094.88
1096.6
1093.15
1093.77
1094.91
1096.83
1093.16
1093.79
1094.82
1096.52
1093.85
1094.19
1095.12
1096.89
1094.08
1094.37
1095.17
1096.71
1093.82
1094.18
1095.1
1096.85
1094.07
1094.38
1095.17
1096.69
1093.79
1094.17
1095.06
1096.76
1094.02
1094.36
1095.15
1096.66
1093.79
1094.2
1095.04
1096.64
1093.97
1094.35
1095.13
1096.6
1093.81
1094.25
1095.06
1096.52
1094.45
1094.69
1095.41
1096.51
1094.86
1095.07
1095.8
1096.83
1094.4
1094.67
1095.39
1096.49
1094.81
1095.05
1095.79
1096.83
1094.32
1094.62
1095.36
1096.47
1094.73
1095.01
1095.77
1096.81
1094.2
1094.56
1095.31
1096.42
1094.62
1094.95
1095.73
1096.78
1094.04
1094.47
1095.25
1096.38
1094.48
1094.89
1095.7
1096.76
1093.74
1094.3
1095.17
1096.34
1094.14
1094.69
1095.57
1096.67
1093.89
1094.39
1095.21
1096.36
1094.31
1094.79
1095.64
1096.71
1093.61
1094.22
1095.13
1096.32
1093.99
1094.6
1095.52
1096.63
1093.49
1094.14
1095.08
1096.28
1093.84
1094.51
1095.46
1096.58
1099.95
1102.25
1104.2
1105.8
1107.02
1100.1
1102.37
1104.32
1105.91
1107.13
1099.93
1102.24
1104.2
1105.79
1107.02
1100.07
1102.35
1104.3
1105.89
1107.12
1099.9
1102.22
1104.19
1105.78
1107.01
1099.96
1102.26
1104.22
1105.81
1107.04
1100.02
1102.32
1104.28
1105.88
1107.11
1099.99
1102.29
1104.26
1105.86
1107.09
1099.88
1102.21
1104.18
1105.78
1107.01
1100
1102.38
1104.36
1105.95
1107.18
1099.91
1102.25
1104.22
1105.82
1107.05
1100.03
1102.42
1104.39
1105.99
1107.22
1099.88
1102.21
1104.18
1105.78
1107.01
1100.01
1102.4
1104.38
1105.98
1107.21
1099.84
1102.19
1104.17
1105.77
1107
1100
1102.4
1104.39
1105.99
1107.22
1099.97
1102.3
1104.26
1105.85
1107.08
1100.13
1102.5
1104.47
1106.05
1107.28
1099.96
1102.3
1104.27
1105.86
1107.09
1100.13
1102.51
1104.47
1106.06
1107.28
1099.97
1102.32
1104.29
1105.88
1107.11
1100.13
1102.52
1104.48
1106.07
1107.3
1100.02
1102.4
1104.37
1105.96
1107.19
1100.16
1102.55
1104.52
1106.11
1107.34
1100.12
1102.5
1104.48
1106.07
1107.3
1109.82
1110.19
1109.64
1110.02
1109.34
1109.76
1108.95
1109.44
1108.56
1109.14
1107.96
1108.62
1108.27
1108.91
1107.65
1108.29
1107.33
1107.91
1113.89
1118.35
1122.1
1125.02
1127.02
1113.83
1118.32
1122.11
1125.04
1127.08
1113.81
1118.31
1122.07
1125
1127
1113.76
1118.29
1122.08
1125.04
1127.07
1113.66
1118.23
1122.02
1124.96
1126.97
1113.61
1118.21
1122.03
1125
1127.03
1113.46
1118.11
1121.94
1124.9
1126.91
1113.42
1118.1
1121.96
1124.94
1126.99
1113.22
1117.95
1121.83
1124.82
1126.85
1113.22
1117.97
1121.87
1124.87
1126.93
1112.71
1117.57
1121.55
1124.59
1126.65
1112.76
1117.63
1121.61
1124.67
1126.74
1112.96
1117.77