/*--------------------------------*- C++ -*----------------------------------*\
  =========                 |
  \\      /  F ield         | OpenFOAM: The Open Source CFD Toolbox
   \\    /   O peration     | Website:  https://openfoam.org
    \\  /    A nd           | Version:  12
     \\/     M anipulation  |
\*---------------------------------------------------------------------------*/
FoamFile
{
    format      ascii;
    class       volScalarField;
    location    "140";
    object      T;
}
// * * * * * * * * * * * * * * * * * * * * * * * * * * * * * * * * * * * * * //

dimensions      [];

internalField   nonuniform List<scalar> 
4480
(
2.49717e-13
7.55866e-11
4.12102e-07
9.43056e-05
0.00217982
0.0124371
0.0353006
0.0695603
0.111088
0.155637
0.199978
0.24202
0.280576
0.315084
0.345373
0.371508
0.39368
0.412147
0.427186
0.43907
0.448066
0.454411
0.458323
0.459997
0.459602
0.457294
0.453205
0.44813
0.442974
0.437709
0.432304
0.426727
0.420946
0.414929
0.408638
0.402038
0.395088
0.387744
0.379957
0.371677
0.362845
0.353396
0.343261
0.332366
0.320626
0.307955
0.294266
0.279477
0.263515
0.246335
0.227937
0.208384
0.187826
0.166523
0.144853
0.123302
0.102437
0.0828467
0.0650686
0.0495241
0.0364589
0.0259231
0.0177816
0.0117577
0.00749114
0.00459835
0.00271985
0.00155081
0.000852884
0.000452774
0.000232228
0.000115192
5.53189e-05
2.57489e-05
1.16302e-05
5.10362e-06
2.17852e-06
9.0568e-07
3.67161e-07
1.4533e-07
5.62381e-08
2.13034e-08
7.91038e-09
3.87425e-09
2.49802e-09
1.80624e-09
1.34488e-09
1.00993e-09
7.64767e-10
5.85772e-10
4.55015e-10
3.59236e-10
2.88916e-10
2.37273e-10
1.99482e-10
1.72118e-10
1.52788e-10
1.3987e-10
1.32357e-10
1.29753e-10
1.32054e-10
1.39801e-10
1.54233e-10
1.77611e-10
2.13793e-10
2.69309e-10
3.55322e-10
4.91298e-10
7.1204e-10
1.08146e-09
1.72025e-09
2.86267e-09
4.9759e-09
9.01574e-09
1.69844e-08
3.31673e-08
6.69131e-08
1.38962e-07
2.9613e-07
6.47265e-07
1.46183e-06
3.46833e-06
8.7542e-06
2.41918e-05
8.21364e-05
0.000288818
0.000608674
0.00093969
0.000452753
3.32314e-05
2.76109e-06
1.28618e-07
5.0536e-09
1.95058e-10
6.60475e-12
1.68413e-13
3.12439e-15
3.29576e-17
1.5548e-19
1.88271e-22
2.55553e-13
1.19125e-08
1.65017e-05
0.00153335
0.0177024
0.0635964
0.133938
0.214682
0.294689
0.367994
0.432376
0.48764
0.534482
0.573882
0.606829
0.634231
0.656867
0.6754
0.690384
0.702283
0.711482
0.718293
0.722979
0.725751
0.726785
0.726222
0.724175
0.720614
0.715796
0.709827
0.702809
0.694842
0.68602
0.676431
0.666149
0.655245
0.643777
0.631791
0.619319
0.606387
0.593008
0.579179
0.564883
0.550098
0.534783
0.518883
0.502335
0.48506
0.466968
0.447966
0.427959
0.406858
0.38459
0.361116
0.336442
0.310634
0.283838
0.256281
0.228284
0.200259
0.172687
0.146104
0.121052
0.0980407
0.0774858
0.0596713
0.0447172
0.0325764
0.0230527
0.0158386
0.0105628
0.00683743
0.00429675
0.00262222
0.00155484
0.000896294
0.000502642
0.000274431
0.00014599
7.57334e-05
3.83437e-05
1.89638e-05
9.16965e-06
4.48424e-06
2.27613e-06
1.21677e-06
6.89906e-07
4.14234e-07
2.6147e-07
1.72057e-07
1.17252e-07
8.24163e-08
5.96382e-08
4.44054e-08
3.40315e-08
2.6866e-08
2.18715e-08
1.83853e-08
1.59812e-08
1.43867e-08
1.34339e-08
1.30313e-08
1.31508e-08
1.38252e-08
1.51583e-08
1.73502e-08
2.07461e-08
2.59249e-08
3.38595e-08
4.62054e-08
6.58324e-08
9.78186e-08
1.5134e-07
2.43306e-07
4.05482e-07
6.98584e-07
1.24061e-06
2.26463e-06
4.23952e-06
8.13138e-06
1.59948e-05
3.23217e-05
6.69228e-05
0.000140585
0.000292914
0.000565873
0.000912084
0.00110611
0.000542542
5.61504e-05
5.30632e-06
4.21881e-07
2.78968e-08
1.50528e-09
6.68593e-11
2.17014e-12
5.05035e-14
6.79366e-16
4.26858e-18
8.22586e-21
1.27837e-10
5.3677e-07
0.000247156
0.0102705
0.0655359
0.165323
0.279114
0.384985
0.474776
0.548113
0.60743
0.65555
0.694832
0.727075
0.753614
0.775459
0.793389
0.808022
0.819857
0.829303
0.836692
0.842294
0.846335
0.848994
0.850414
0.850709
0.849971
0.848099
0.845095
0.841023
0.835939
0.829892
0.822934
0.81511
0.806471
0.797061
0.786929
0.776118
0.76467
0.75262
0.740003
0.72684
0.713153
0.698949
0.684224
0.668972
0.653163
0.636762
0.619717
0.601964
0.583427
0.564015
0.54363
0.522172
0.499548
0.475666
0.450472
0.423939
0.396094
0.367029
0.336918
0.306018
0.274679
0.243332
0.212472
0.182629
0.154333
0.128068
0.104238
0.0831334
0.0649072
0.0495738
0.0370154
0.0270076
0.0192496
0.0134006
0.00911131
0.00605104
0.00392613
0.00248954
0.00154332
0.000935784
0.000555265
0.000325251
0.00018972
0.000110824
6.52222e-05
3.89033e-05
2.36458e-05
1.47095e-05
9.39404e-06
6.1704e-06
4.17219e-06
2.90508e-06
2.08351e-06
1.53966e-06
1.17298e-06
9.22037e-07
7.48584e-07
6.28446e-07
5.46215e-07
4.92121e-07
4.60179e-07
4.47114e-07
4.51844e-07
4.75332e-07
5.20837e-07
5.94635e-07
7.07369e-07
8.7647e-07
1.13032e-06
1.51544e-06
2.10893e-06
3.0402e-06
4.52912e-06
6.95352e-06
1.09692e-05
1.77233e-05
2.92358e-05
4.90728e-05
8.34966e-05
0.000143196
0.000245062
0.000411629
0.000661798
0.000980045
0.00126029
0.00127279
0.000655218
8.98217e-05
1.03259e-05
1.03169e-06
8.65584e-08
5.8488e-09
3.22235e-10
1.28964e-11
3.70448e-13
6.25294e-15
5.11542e-17
1.373e-19
9.33193e-09
1.07584e-05
0.00196276
0.0399819
0.157018
0.302681
0.43285
0.535168
0.612677
0.671933
0.718517
0.756156
0.787118
0.81278
0.834059
0.851638
0.866074
0.877831
0.887313
0.894862
0.90077
0.90528
0.908589
0.910863
0.912226
0.912778
0.912595
0.911629
0.909845
0.907275
0.903941
0.899857
0.895037
0.88949
0.883224
0.876254
0.868594
0.860256
0.851263
0.841633
0.831388
0.820549
0.809133
0.797161
0.784641
0.771583
0.757985
0.74384
0.729125
0.713815
0.697864
0.681215
0.663801
0.645536
0.626329
0.606078
0.584677
0.562021
0.538024
0.512612
0.485754
0.457459
0.427803
0.396929
0.365056
0.332487
0.299598
0.266825
0.23465
0.203566
0.174056
0.146555
0.12142
0.0989111
0.0791759
0.0622442
0.0480367
0.0363806
0.0270324
0.0197041
0.0140887
0.00988213
0.00680062
0.00460546
0.00308274
0.00204445
0.00134701
0.000884388
0.000580522
0.000382306
0.000253494
0.00016983
0.000115346
7.96644e-05
5.61039e-05
4.03857e-05
2.97771e-05
2.25302e-05
1.75229e-05
1.40312e-05
1.15844e-05
9.8753e-06
8.70374e-06
7.94077e-06
7.5073e-06
7.36113e-06
7.49082e-06
7.91406e-06
8.68118e-06
9.88416e-06
1.16731e-05
1.42837e-05
1.80815e-05
2.36326e-05
3.18144e-05
4.39884e-05
6.22648e-05
8.98962e-05
0.000131831
0.000195407
0.00029098
0.000431745
0.00063103
0.00089411
0.00120182
0.00148673
0.00161493
0.00141637
0.000763475
0.000136901
1.85937e-05
2.17888e-06
2.14136e-07
1.69498e-08
1.0979e-09
5.19198e-11
1.77893e-12
3.64682e-14
3.73054e-16
1.30578e-18
2.75144e-07
0.000120445
0.00979521
0.106618
0.284415
0.445786
0.563513
0.645333
0.703996
0.748918
0.785506
0.816324
0.84246
0.864466
0.882764
0.897779
0.909952
0.919703
0.927417
0.933439
0.938068
0.941547
0.94408
0.945825
0.946908
0.94742
0.947427
0.946916
0.945813
0.944142
0.941913
0.939132
0.935799
0.93191
0.927459
0.92244
0.916846
0.910677
0.90393
0.89661
0.888717
0.880265
0.871258
0.86171
0.85163
0.841027
0.829911
0.818282
0.806139
0.793473
0.780266
0.76649
0.752106
0.737062
0.721296
0.70473
0.687273
0.668824
0.649281
0.628532
0.606474
0.583016
0.55809
0.531657
0.50372
0.474344
0.443647
0.411817
0.379113
0.345858
0.312434
0.279266
0.246806
0.215505
0.185793
0.158048
0.132584
0.109624
0.0892962
0.0716337
0.0565747
0.0439796
0.0336466
0.0253553
0.0188685
0.0138818
0.0101108
0.00730205
0.00523859
0.00374091
0.00266507
0.00189877
0.00135644
0.00097427
0.000705544
0.000516604
0.000383516
0.000289444
0.00022264
0.000174958
0.00014077
0.000116199
9.85843e-05
8.61033e-05
7.75254e-05
7.20412e-05
6.91532e-05
6.86106e-05
7.03759e-05
7.46209e-05
8.17463e-05
9.24348e-05
0.000107733
0.000129178
0.000158973
0.000200219
0.000257191
0.000335611
0.000442794
0.000587353
0.000777891
0.00101965
0.00130793
0.00161782
0.0018929
0.00204005
0.00194504
0.00153048
0.000847237
0.000198546
3.10384e-05
4.14165e-06
4.61637e-07
4.14233e-08
3.05493e-09
1.65532e-10
6.56815e-12
1.58623e-13
1.95938e-15
8.55511e-18
4.48732e-06
0.000867056
0.0341629
0.215322
0.423713
0.567546
0.657542
0.716765
0.760371
0.796318
0.827901
0.855766
0.879755
0.899819
0.916171
0.929227
0.939467
0.947366
0.953363
0.957835
0.961106
0.963442
0.96506
0.966121
0.966751
0.967037
0.967035
0.966754
0.966061
0.964972
0.963489
0.961611
0.95933
0.956634
0.953512
0.949948
0.945931
0.941446
0.936483
0.931036
0.925097
0.918663
0.911736
0.904319
0.896417
0.888035
0.879182
0.869861
0.860081
0.849838
0.839132
0.827952
0.816282
0.804095
0.791354
0.778012
0.764008
0.749269
0.733709
0.717235
0.699745
0.681125
0.661271
0.640077
0.617456
0.593341
0.567689
0.540504
0.511833
0.481772
0.450484
0.418188
0.385163
0.351744
0.318304
0.285254
0.253008
0.221979
0.192547
0.165045
0.139741
0.116827
0.096411
0.0785316
0.0632283
0.0503454
0.0396718
0.0309632
0.02396
0.0184046
0.0140526
0.010682
0.0080979
0.00613402
0.00465242
0.00354113
0.00271116
0.00209304
0.00163336
0.00129164
0.00103757
0.000848611
0.000708222
0.000604321
0.00052817
0.000473534
0.000436046
0.000412776
0.000401916
0.000402591
0.00041475
0.000439127
0.000477259
0.000531542
0.000605298
0.000702798
0.000829171
0.000990001
0.00119039
0.00143308
0.00171516
0.00202316
0.00232681
0.00257396
0.00269117
0.00259673
0.00223263
0.00161636
0.000891626
0.00027444
4.85652e-05
7.25873e-06
9.02166e-07
9.01168e-08
7.4218e-09
4.51498e-10
2.03075e-11
5.64489e-13
8.20285e-15
4.33682e-17
4.79968e-05
0.00441759
0.0895321
0.351958
0.547168
0.654853
0.717483
0.76047
0.795589
0.827757
0.857934
0.884984
0.907882
0.926401
0.940886
0.951924
0.960122
0.966044
0.970179
0.97295
0.974708
0.975743
0.976286
0.976513
0.976549
0.976476
0.97634
0.976159
0.975742
0.975091
0.974199
0.973048
0.971621
0.9699
0.967861
0.965482
0.962744
0.959629
0.95612
0.952203
0.947867
0.943103
0.937908
0.932279
0.926218
0.919725
0.912806
0.905469
0.897721
0.889565
0.881006
0.872048
0.862683
0.852902
0.842691
0.832026
0.820867
0.809175
0.79689
0.783943
0.770256
0.755736
0.740285
0.723797
0.706166
0.687281
0.667041
0.645362
0.622172
0.597434
0.571137
0.543321
0.514062
0.483502
0.451827
0.41928
0.386157
0.352796
0.319567
0.286858
0.255056
0.224536
0.195636
0.168628
0.143891
0.121569
0.101722
0.0843308
0.0693055
0.0565004
0.045729
0.0367799
0.0294306
0.0234592
0.0186546
0.0148221
0.0117884
0.00940236
0.00753584
0.00608207
0.00495367
0.00408038
0.00340638
0.00288795
0.00249126
0.00219038
0.00196577
0.00180287
0.00169114
0.00162321
0.00159428
0.0016016
0.00164417
0.0017223
0.00183722
0.00199051
0.00218326
0.00241467
0.00268005
0.00296803
0.00325721
0.00351286
0.00368555
0.0037145
0.003539
0.00311998
0.00246926
0.00167635
0.000908489
0.000340749
7.1971e-05
1.19223e-05
1.63489e-06
1.79776e-07
1.6333e-08
1.10079e-09
5.53097e-11
1.74119e-12
2.92369e-14
1.83733e-16
0.00037761
0.0170577
0.185463
0.487774
0.637261
0.709619
0.753614
0.787826
0.819492
0.851085
0.881689
0.908614
0.930426
0.947155
0.959507
0.968311
0.9743
0.978093
0.980216
0.98112
0.981193
0.980753
0.980062
0.979306
0.978619
0.978079
0.977724
0.977554
0.97734
0.977063
0.976697
0.97621
0.97557
0.974741
0.97369
0.972383
0.970792
0.968892
0.966662
0.964078
0.96113
0.957803
0.954091
0.949989
0.945493
0.940611
0.935342
0.929691
0.923668
0.917283
0.91054
0.903446
0.896009
0.888229
0.880102
0.871619
0.862766
0.853519
0.843844
0.833699
0.823031
0.811771
0.79985
0.787178
0.773659
0.759197
0.74368
0.727002
0.709054
0.689737
0.668967
0.646673
0.622809
0.597366
0.570366
0.541881
0.512028
0.480973
0.44894
0.416191
0.383037
0.349823
0.31691
0.284646
0.253494
0.223837
0.195977
0.170152
0.14653
0.125204
0.106195
0.089462
0.0749077
0.0623921
0.0517458
0.0427808
0.0353017
0.0291154
0.0240374
0.0198976
0.0165429
0.0138388
0.0116694
0.00993701
0.00856003
0.00747171
0.00661813
0.00595609
0.00545161
0.00507808
0.00481501
0.00464657
0.00456054
0.00454706
0.00459736
0.00470242
0.00485124
0.00502892
0.00521447
0.00537878
0.00548337
0.00548139
0.00532211
0.00496091
0.00437473
0.00358068
0.00265069
0.00171127
0.000914363
0.000374286
0.000101937
1.85704e-05
2.78926e-06
3.35192e-07
3.33264e-08
2.467e-09
1.3715e-10
4.83814e-12
9.28098e-14
6.85944e-16
0.00239169
0.0524187
0.314389
0.594451
0.69289
0.741914
0.776053
0.806428
0.837403
0.870016
0.901773
0.928485
0.948771
0.963309
0.973281
0.979716
0.98339
0.984926
0.984868
0.983704
0.981872
0.979746
0.977619
0.975712
0.974168
0.973067
0.97243
0.972227
0.972182
0.972262
0.972417
0.972596
0.972743
0.972809
0.972739
0.972487
0.972013
0.971279
0.970255
0.96892
0.96725
0.965234
0.962859
0.96012
0.957014
0.953543
0.949708
0.945521
0.940988
0.936117
0.930921
0.925409
0.919594
0.913482
0.907077
0.900385
0.8934
0.886116
0.878515
0.870577
0.862269
0.85355
0.844367
0.834661
0.824362
0.813385
0.801643
0.789035
0.775458
0.760806
0.744967
0.727834
0.70931
0.689303
0.66775
0.644601
0.61984
0.59349
0.56561
0.53631
0.505745
0.474123
0.441693
0.40875
0.375605
0.342703
0.310426
0.27914
0.249182
0.220844
0.194364
0.169916
0.147611
0.127495
0.109554
0.0937249
0.0799004
0.0679421
0.0576915
0.0489769
0.041625
0.0354652
0.030337
0.0260919
0.0225966
0.0197333
0.0174001
0.0155096
0.0139881
0.0127739
0.0118153
0.0110687
0.0104973
0.0100684
0.00975167
0.00951731
0.009334
0.00916702
0.00897739
0.00872173
0.00835442
0.00783246
0.00712367
0.00621818
0.00514033
0.00395675
0.00277417
0.00172052
0.000907808
0.000387045
0.000124862
2.76935e-05
4.53155e-06
5.92205e-07
6.40964e-08
5.18288e-09
3.16884e-10
1.24451e-11
2.70938e-13
2.34263e-15
0.0118822
0.133023
0.44656
0.659504
0.724436
0.761745
0.791196
0.820155
0.85173
0.88613
0.919263
0.945307
0.963526
0.975568
0.983072
0.98711
0.988393
0.987505
0.985017
0.98149
0.977445
0.973337
0.969524
0.966266
0.963722
0.961969
0.96101
0.960745
0.960877
0.961343
0.962069
0.962975
0.963979
0.965004
0.965977
0.966834
0.967516
0.967976
0.968173
0.968075
0.967659
0.966905
0.965799
0.964336
0.962516
0.960338
0.957805
0.954927
0.951713
0.948177
0.944326
0.940181
0.935753
0.931053
0.926097
0.920894
0.915444
0.909756
0.903824
0.897637
0.891185
0.884443
0.877378
0.869951
0.862114
0.853809
0.844966
0.835511
0.825352
0.814399
0.802546
0.789693
0.775723
0.760531
0.744004
0.726046
0.70657
0.685505
0.662809
0.638463
0.612493
0.584959
0.555969
0.525681
0.494243
0.461988
0.429231
0.39632
0.363615
0.33148
0.300261
0.270277
0.241808
0.215081
0.190267
0.16748
0.146773
0.128148
0.111556
0.0969109
0.0840953
0.0729699
0.0633827
0.0551767
0.0481948
0.0422868
0.0373112
0.0331379
0.0296497
0.0267414
0.0243198
0.0223021
0.0206145
0.0191898
0.0179662
0.016885
0.0158896
0.0149245
0.0139365
0.0128764
0.0117042
0.0103948
0.00894689
0.00738952
0.00578657
0.0042325
0.00283781
0.0017031
0.000887938
0.000387642
0.000135703
3.63389e-05
7.07561e-06
1.0022e-06
1.17669e-07
1.03589e-08
6.94079e-10
3.02391e-11
7.44671e-13
7.51833e-15
0.035919
0.245015
0.558355
0.69378
0.743396
0.775073
0.802093
0.830694
0.863496
0.900103
0.934617
0.959399
0.975082
0.984525
0.989626
0.991288
0.990045
0.986448
0.981138
0.974813
0.968133
0.961668
0.955863
0.951028
0.947336
0.944858
0.943571
0.943252
0.94361
0.944546
0.94595
0.947705
0.949695
0.951811
0.953953
0.956033
0.957973
0.959711
0.961198
0.962388
0.963255
0.963776
0.963934
0.963723
0.963141
0.962192
0.96088
0.959216
0.957211
0.954882
0.952241
0.949307
0.946099
0.942629
0.938916
0.934973
0.930814
0.92645
0.92188
0.917113
0.912142
0.906956
0.901542
0.895875
0.889924
0.88365
0.877007
0.869935
0.862374
0.854243
0.845465
0.835945
0.825583
0.814275
0.801908
0.788375
0.773558
0.757351
0.739655
0.720384
0.699475
0.67689
0.652616
0.626689
0.599114
0.57006
0.53972
0.508332
0.476178
0.443572
0.410857
0.378378
0.346484
0.315505
0.285738
0.257444
0.230834
0.206065
0.18324
0.162408
0.14357
0.126681
0.111661
0.0984036
0.0867785
0.0766458
0.0678572
0.0602649
0.053724
0.0480957
0.0432495
0.0390637
0.0354253
0.0322303
0.0293824
0.0267929
0.0243813
0.0220756
0.0198153
0.0175549
0.0152684
0.0129549
0.0106425
0.00838882
0.00627611
0.0043983
0.00284108
0.00165861
0.000854599
0.000377942
0.000139009
4.11125e-05
9.45337e-06
1.63899e-06
2.08291e-07
1.99279e-08
1.46066e-09
7.04865e-11
1.96138e-12
2.31287e-14
0.0812068
0.358134
0.628231
0.718988
0.75719
0.78445
0.810055
0.8388
0.873162
0.912232
0.948075
0.970954
0.983806
0.990762
0.99363
0.992884
0.98883
0.982043
0.973339
0.963633
0.953788
0.944529
0.936399
0.929759
0.924794
0.921554
0.919977
0.919655
0.92034
0.921889
0.924141
0.926931
0.9301
0.933497
0.93699
0.940464
0.943817
0.946971
0.949859
0.952432
0.954652
0.956498
0.957954
0.959006
0.959662
0.95992
0.959791
0.959288
0.958426
0.957223
0.955696
0.953866
0.951754
0.949379
0.946761
0.943919
0.940869
0.937626
0.934203
0.930606
0.926842
0.92291
0.918804
0.914513
0.910023
0.905306
0.900332
0.895063
0.889453
0.883446
0.876978
0.869978
0.862363
0.854045
0.844925
0.8349
0.823858
0.811682
0.798259
0.783476
0.767225
0.749409
0.729948
0.70879
0.685841
0.661138
0.634737
0.606756
0.577355
0.546742
0.515175
0.482945
0.450374
0.417795
0.385553
0.353974
0.323369
0.294011
0.266135
0.239923
0.215511
0.192981
0.172363
0.153645
0.136774
0.121666
0.10821
0.0962792
0.0857333
0.0764266
0.068212
0.0609453
0.0544871
0.0487058
0.0434795
0.0386982
0.0342651
0.0301004
0.0261441
0.0223597
0.0187373
0.0152948
0.0120772
0.00914933
0.00658515
0.00445061
0.00278544
0.00158777
0.000808471
0.000359625
0.000136331
4.28904e-05
1.08938e-05
2.17236e-06
3.30648e-07
3.72512e-08
2.98534e-09
1.59547e-10
5.01855e-12
6.92288e-14
0.151052
0.454819
0.671249
0.736703
0.768406
0.791665
0.815734
0.844856
0.88094
0.92265
0.959769
0.98015
0.990092
0.99486
0.995672
0.992339
0.984964
0.974285
0.961435
0.947642
0.934034
0.921513
0.910732
0.902093
0.895778
0.891801
0.890035
0.889815
0.890991
0.893358
0.896692
0.900765
0.905362
0.910286
0.915361
0.920439
0.925396
0.93013
0.934565
0.938641
0.942318
0.945566
0.948372
0.950729
0.952639
0.954109
0.955154
0.955788
0.956028
0.9559
0.955425
0.954627
0.953525
0.952148
0.950517
0.948655
0.946581
0.944314
0.941874
0.939268
0.936513
0.933611
0.930567
0.927379
0.924037
0.920533
0.916842
0.912945
0.908809
0.904394
0.899653
0.894535
0.888975
0.882899
0.876233
0.868883
0.860755
0.851742
0.841733
0.830611
0.818254
0.804546
0.789374
0.772632
0.754183
0.73396
0.711927
0.688089
0.662495
0.635237
0.606462
0.576364
0.545179
0.513184
0.480688
0.448016
0.415499
0.383468
0.35223
0.322067
0.293222
0.265892
0.240226
0.216324
0.194235
0.173963
0.155472
0.138694
0.123529
0.109859
0.0975528
0.0864706
0.0764714
0.0674181
0.0591811
0.0516448
0.0447102
0.0382995
0.0323595
0.0268632
0.0218105
0.0172254
0.0131488
0.00962831
0.00670373
0.00439201
0.00267477
0.00149279
0.00075106
0.000334386
0.000129058
4.22255e-05
1.1434e-05
2.49705e-06
4.27374e-07
5.53997e-08
5.19698e-09
3.28945e-10
1.23734e-11
2.03941e-13
0.232132
0.558882
0.699021
0.749402
0.776398
0.797739
0.819811
0.849078
0.886932
0.931403
0.969813
0.987193
0.994369
0.997374
0.99622
0.989889
0.978426
0.962937
0.945039
0.926379
0.908389
0.892163
0.878455
0.867693
0.860033
0.855422
0.85365
0.853709
0.855611
0.859069
0.863777
0.869433
0.875753
0.882482
0.889397
0.896315
0.90308
0.909575
0.915713
0.921421
0.926659
0.931397
0.935621
0.939329
0.942526
0.945225
0.947443
0.949203
0.950526
0.951441
0.951973
0.95215
0.952
0.95155
0.950826
0.949852
0.948657
0.947258
0.945678
0.943933
0.942037
0.940005
0.937843
0.935556
0.933141
0.930598
0.927915
0.925078
0.922066
0.918855
0.915412
0.911696
0.907661
0.903255
0.898414
0.893063
0.887128
0.880512
0.873124
0.864848
0.855578
0.845186
0.833554
0.820553
0.806036
0.789867
0.771956
0.752229
0.730644
0.707201
0.681937
0.654944
0.626357
0.596363
0.56519
0.533111
0.500423
0.467449
0.434517
0.401949
0.370053
0.339111
0.309365
0.281017
0.25422
0.229081
0.205657
0.183961
0.163969
0.145621
0.128833
0.113501
0.0995148
0.086756
0.0751126
0.0644825
0.0547794
0.0459366
0.0379103
0.030679
0.0242409
0.0186076
0.0137942
0.00980792
0.00663496
0.00423078
0.00251547
0.00137725
0.000684567
0.000303991
0.000118467
3.97251e-05
1.12156e-05
2.60177e-06
4.82015e-07
6.88488e-08
7.22825e-09
5.18742e-10
2.23747e-11
4.27853e-13
0.299601
0.6065
0.717987
0.758324
0.781688
0.801578
0.823484
0.851598
0.891172
0.938482
0.978294
0.992323
0.997084
0.998792
0.995592
0.985576
0.968994
0.947601
0.923667
0.899343
0.876385
0.856081
0.839258
0.826345
0.817443
0.812403
0.810897
0.811503
0.814451
0.819348
0.825787
0.83337
0.841736
0.850566
0.859587
0.868576
0.877353
0.885783
0.893763
0.901221
0.908115
0.914416
0.920114
0.925213
0.929723
0.933663
0.937059
0.939934
0.942322
0.944252
0.945758
0.94687
0.947621
0.948042
0.948162
0.94801
0.947615
0.947
0.94619
0.945205
0.944062
0.942777
0.941363
0.939829
0.93818
0.936417
0.934537
0.932535
0.930399
0.92811
0.925649
0.922991
0.920096
0.916928
0.913438
0.90957
0.905259
0.900434
0.895009
0.888893
0.881983
0.874169
0.865326
0.855331
0.844042
0.831283
0.816933
0.800875
0.783004
0.763251
0.741568
0.717954
0.692451
0.665149
0.636184
0.605748
0.574072
0.541429
0.508121
0.474466
0.440794
0.407426
0.374667
0.342796
0.312055
0.282645
0.25472
0.22839
0.203718
0.180731
0.159416
0.139736
0.121635
0.105041
0.0898815
0.0760873
0.0635961
0.0523585
0.0423384
0.0335111
0.0258585
0.0193613
0.0139898
0.00969327
0.00639332
0.00398016
0.00231612
0.00124586
0.000611688
0.000270236
0.000105721
3.59749e-05
1.04341e-05
2.51985e-06
4.92687e-07
7.52659e-08
8.55661e-09
6.72405e-10
3.20814e-11
6.85479e-13
0.357661
0.641458
0.732841
0.764185
0.784557
0.803281
0.825375
0.853676
0.893673
0.943853
0.9853
0.995831
0.998661
0.999514
0.993958
0.979277
0.95632
0.927811
0.896835
0.866099
0.837681
0.813027
0.793016
0.778046
0.768129
0.762984
0.761486
0.763047
0.767521
0.774361
0.783023
0.792992
0.803812
0.815092
0.826511
0.83781
0.848791
0.859305
0.869248
0.878548
0.887164
0.895076
0.902281
0.908788
0.914619
0.919799
0.92436
0.928338
0.931765
0.934682
0.937126
0.939133
0.94074
0.941981
0.942892
0.943503
0.943845
0.943946
0.943832
0.943526
0.943049
0.94242
0.941656
0.940764
0.939758
0.938644
0.937421
0.936091
0.934649
0.933083
0.931381
0.929524
0.92749
0.925247
0.922761
0.919991
0.916884
0.91338
0.909415
0.90491
0.899772
0.893906
0.887203
0.87954
0.870786
0.860759
0.849325
0.836335
0.821656
0.805162
0.786752
0.766352
0.743919
0.719462
0.69303
0.664724
0.634696
0.603151
0.570337
0.536538
0.502066
0.46725
0.432427
0.397922
0.364041
0.331069
0.299247
0.268781
0.239832
0.212521
0.186928
0.1631
0.141055
0.120789
0.102287
0.0855201
0.0704592
0.0570719
0.0453237
0.0351754
0.0265779
0.019465
0.0137478
0.00930898
0.00600244
0.00365715
0.00208687
0.00110406
0.000535359
0.000234863
9.18572e-05
3.14983e-05
9.28931e-06
2.30333e-06
4.67052e-07
7.47354e-08
8.9843e-09
7.53184e-10
3.86515e-11
8.95368e-13
0.40642
0.665868
0.741145
0.767412
0.785151
0.802826
0.825267
0.855205
0.894741
0.947471
0.990911
0.99803
0.999478
0.999837
0.99136
0.97076
0.939999
0.903117
0.864151
0.826362
0.792115
0.762972
0.739831
0.723033
0.712463
0.707664
0.706507
0.709516
0.716015
0.725282
0.736615
0.749369
0.762986
0.777003
0.791049
0.804836
0.818154
0.830846
0.842813
0.853994
0.864352
0.873878
0.882582
0.890483
0.897611
0.904003
0.909698
0.914738
0.919168
0.92303
0.926367
0.929224
0.93164
0.933654
0.935303
0.936624
0.937644
0.938401
0.93892
0.939228
0.939349
0.9393
0.939103
0.938772
0.938318
0.937751
0.937077
0.936299
0.935418
0.934426
0.933321
0.932086
0.930709
0.929166
0.927435
0.92548
0.923262
0.920738
0.917851
0.914536
0.910717
0.906311
0.901216
0.895322
0.888508
0.880608
0.871471
0.860946
0.848873
0.835098
0.819479
0.801889
0.782228
0.760428
0.736465
0.710357
0.682181
0.652066
0.620192
0.586794
0.552147
0.516568
0.480392
0.443974
0.407666
0.37181
0.336732
0.302723
0.270042
0.238907
0.209498
0.181957
0.156388
0.132864
0.11143
0.0921069
0.074895
0.0597725
0.0466971
0.0356021
0.0263937
0.0189482
0.0131102
0.00869451
0.00549229
0.00328114
0.00183868
0.000957517
0.000458508
0.000199465
7.77555e-05
2.67336e-05
7.95812e-06
2.00617e-06
4.16685e-07
6.88065e-08
8.59748e-09
7.54232e-10
4.07579e-11
1.00016e-12
0.446577
0.682841
0.745612
0.768223
0.783493
0.800133
0.822962
0.854648
0.895716
0.949282
0.995179
0.99925
0.999841
0.999958
0.987744
0.959722
0.919626
0.873159
0.82538
0.780062
0.739774
0.706142
0.680059
0.661793
0.651077
0.647212
0.64734
0.652414
0.661525
0.673732
0.688162
0.704035
0.720695
0.737619
0.754398
0.770735
0.786407
0.801273
0.815235
0.82825
0.840297
0.851379
0.861519
0.870749
0.879111
0.886652
0.893417
0.89946
0.904831
0.909581
0.913755
0.917404
0.920571
0.923301
0.925632
0.927602
0.929251
0.930606
0.931703
0.932564
0.933221
0.933689
0.933995
0.934153
0.934179
0.934081
0.933872
0.933554
0.933135
0.932611
0.931982
0.931238
0.930373
0.929366
0.928206
0.926865
0.925313
0.923514
0.921422
0.918986
0.916144
0.912815
0.908918
0.904353
0.899001
0.892718
0.885347
0.876736
0.866714
0.855111
0.841754
0.826483
0.809147
0.78963
0.767837
0.743724
0.717294
0.688606
0.657778
0.624986
0.590467
0.554508
0.517435
0.479614
0.441429
0.403273
0.365534
0.328588
0.292782
0.258433
0.225819
0.195173
0.166688
0.140512
0.116749
0.0954598
0.0766658
0.0603447
0.0464324
0.0348229
0.0253683
0.0178813
0.0121406
0.00789928
0.00489661
0.00287249
0.00158257
0.000811761
0.000383834
0.000165414
6.41255e-05
2.20249e-05
6.58283e-06
1.67519e-06
3.53204e-07
5.9539e-08
7.63559e-09
6.91008e-10
3.87013e-11
9.88514e-13
0.479082
0.694409
0.747281
0.766459
0.77956
0.79507
0.818293
0.851943
0.896183
0.949634
0.998131
0.999806
0.999967
0.999992
0.983
0.945852
0.894861
0.837723
0.780513
0.727392
0.681019
0.643024
0.614298
0.595065
0.584879
0.582105
0.584394
0.5925
0.605139
0.621064
0.639173
0.658553
0.678479
0.698402
0.717914
0.736729
0.754651
0.771557
0.787377
0.802083
0.815675
0.828176
0.839622
0.850059
0.859538
0.868121
0.875858
0.882811
0.889035
0.894588
0.899525
0.903897
0.907746
0.911127
0.914078
0.91664
0.918853
0.920752
0.922366
0.923727
0.92486
0.925791
0.926542
0.927131
0.927572
0.927882
0.928068
0.928142
0.928109
0.927971
0.927728
0.927378
0.926917
0.926331
0.925609
0.924735
0.923683
0.922424
0.920924
0.919138
0.917014
0.914483
0.911469
0.907883
0.903617
0.89854
0.892494
0.885327
0.876865
0.866926
0.855319
0.841854
0.826353
0.808646
0.788597
0.766105
0.741112
0.713621
0.683692
0.651453
0.617098
0.580888
0.543141
0.504226
0.464552
0.424555
0.384685
0.345387
0.307093
0.270207
0.235098
0.202084
0.171433
0.143356
0.118003
0.0954597
0.0757516
0.05884
0.044626
0.0329539
0.0236164
0.0163642
0.0109171
0.00697828
0.00425025
0.00245115
0.0013289
0.00067175
0.000313638
0.000133795
5.14977e-05
1.76221e-05
5.26746e-06
1.34609e-06
2.86214e-07
4.8859e-08
6.37122e-09
5.88483e-10
3.37534e-11
8.85536e-13
0.504832
0.701709
0.746241
0.761783
0.773277
0.787472
0.811029
0.846803
0.894524
0.949955
0.999745
0.999982
1
1
0.976987
0.928857
0.865467
0.796789
0.729797
0.668847
0.616522
0.574385
0.543386
0.523819
0.515051
0.512319
0.518167
0.530777
0.548261
0.568928
0.591415
0.614695
0.638037
0.660929
0.683027
0.704107
0.724024
0.742708
0.760119
0.776266
0.791169
0.804872
0.817423
0.828883
0.839312
0.848782
0.857353
0.86509
0.872054
0.878307
0.883906
0.888906
0.893357
0.89731
0.900808
0.903894
0.906607
0.908985
0.91106
0.912863
0.91442
0.915759
0.9169
0.917867
0.918672
0.919332
0.919861
0.920269
0.920561
0.920743
0.920821
0.92079
0.920652
0.920398
0.920017
0.919502
0.91883
0.91798
0.916919
0.915616
0.914018
0.912069
0.909702
0.906832
0.903356
0.899153
0.894071
0.887954
0.880625
0.871894
0.861554
0.849399
0.83522
0.818815
0.800013
0.778664
0.754671
0.727987
0.698634
0.666699
0.632348
0.595825
0.557442
0.517582
0.476678
0.435211
0.393682
0.352603
0.312479
0.273792
0.23698
0.202432
0.170472
0.141349
0.115236
0.0922237
0.0723192
0.055451
0.0414732
0.0301748
0.0212903
0.0145158
0.00952498
0.00598759
0.00358693
0.00203552
0.00108677
0.000541623
0.00024971
0.000105394
4.02286e-05
1.36876e-05
4.08007e-06
1.043e-06
2.22552e-07
3.82458e-08
5.03574e-09
4.70942e-10
2.74143e-11
7.31364e-13
0.524592
0.705643
0.74311
0.755172
0.764547
0.777134
0.800908
0.838984
0.8907
0.950252
0.999999
0.999999
0.999998
0.999999
0.969575
0.908486
0.831333
0.750565
0.673795
0.605293
0.547334
0.501315
0.468382
0.449237
0.442998
0.443677
0.454335
0.47241
0.495376
0.521111
0.548034
0.575069
0.601534
0.627014
0.651272
0.674169
0.69565
0.715691
0.734307
0.751534
0.767421
0.782026
0.795415
0.807656
0.818821
0.828985
0.838211
0.84657
0.85413
0.860954
0.867096
0.872618
0.877572
0.882006
0.885966
0.889499
0.892642
0.895433
0.897906
0.900091
0.902017
0.903707
0.90519
0.906484
0.907602
0.908569
0.90939
0.910081
0.91065
0.911101
0.911442
0.911673
0.911797
0.911806
0.911697
0.911459
0.911076
0.910535
0.909803
0.908853
0.907639
0.906114
0.904207
0.901842
0.898919
0.895323
0.890899
0.885492
0.87892
0.870982
0.861459
0.850124
0.836749
0.821111
0.803002
0.782249
0.758722
0.732347
0.703117
0.671102
0.636461
0.59943
0.560339
0.519588
0.477646
0.435036
0.392312
0.350044
0.308799
0.269111
0.231472
0.196311
0.163977
0.134732
0.10874
0.086069
0.0666893
0.0504807
0.037243
0.0267095
0.0185646
0.0124631
0.00805009
0.00498082
0.00293724
0.00164144
0.00086358
0.00042451
0.000193281
8.06858e-05
3.05162e-05
1.03094e-05
3.0581e-06
7.79791e-07
1.6637e-07
2.86551e-08
3.78976e-09
3.56692e-10
2.09305e-11
5.63519e-13
0.538974
0.706834
0.738104
0.746433
0.753213
0.763846
0.787626
0.828165
0.884453
0.949311
1
1
0.999998
0.999997
0.960655
0.884531
0.792494
0.699523
0.613444
0.538077
0.475042
0.425368
0.390597
0.372709
0.366465
0.373827
0.393172
0.419735
0.44983
0.481099
0.51218
0.542326
0.571133
0.598407
0.624067
0.648093
0.670503
0.69134
0.710655
0.72851
0.744976
0.760121
0.774024
0.786756
0.7984
0.809022
0.818696
0.827496
0.835483
0.842723
0.849274
0.855195
0.860537
0.865352
0.869685
0.873575
0.877069
0.8802
0.883004
0.885508
0.887743
0.889734
0.891505
0.893075
0.894465
0.895689
0.896758
0.897688
0.89849
0.899167
0.899729
0.900175
0.900509
0.90073
0.900834
0.900812
0.900652
0.900341
0.899853
0.899159
0.898218
0.896982
0.895387
0.893352
0.890781
0.887556
0.88352
0.87851
0.872335
0.864781
0.85562
0.844606
0.831493
0.816038
0.798018
0.777243
0.753571
0.726915
0.69727
0.664713
0.62941
0.591625
0.551711
0.510109
0.46733
0.423943
0.380549
0.337764
0.296192
0.256401
0.2189
0.184124
0.152411
0.123999
0.0990159
0.0774795
0.0593051
0.0443149