/*--------------------------------*- C++ -*----------------------------------*\
  =========                 |
  \\      /  F ield         | OpenFOAM: The Open Source CFD Toolbox
   \\    /   O peration     | Website:  https://openfoam.org
    \\  /    A nd           | Version:  13
     \\/     M anipulation  |
\*---------------------------------------------------------------------------*/
FoamFile
{
    format      ascii;
    class       volScalarField;
    location    "179.831886";
    object      T;
}
// * * * * * * * * * * * * * * * * * * * * * * * * * * * * * * * * * * * * * //

dimensions      [0 0 0 1 0 0 0];

internalField   nonuniform List<scalar> 
5712
(
1077.8
1077.68
1077.48
1077.29
1076.98
1076.8
1076.28
1076.13
1076.41
1076.23
1076.95
1076.78
1077.35
1077.18
1077.64
1077.51
1076.84
1076.61
1076.52
1076.2
1075.99
1075.69
1075.71
1075.32
1078.24
1078.97
1078.11
1078.79
1077.94
1078.63
1077.74
1078.39
1077.26
1077.63
1076.92
1077.38
1078.22
1077.83
1076.13
1075.54
1075.81
1075.38
1075.36
1074.87
1074.98
1074.61
1076.85
1076.24
1076.5
1076.04
1077.43
1076.83
1079.8
1080.28
1079.45
1079.95
1079.46
1080.07
1079.05
1079.61
1078.97
1079.8
1078.36
1079.12
1077.88
1078.64
1077.36
1078.12
1076.68
1076.58
1076.17
1076.13
1075.56
1075.42
1075.16
1075.02
1077.15
1077.3
1077.75
1077.79
1075.74
1075.75
1075.36
1075.44
1074.8
1074.69
1074.46
1074.4
1076.65
1076.9
1076.22
1076.58
1078.1
1079.02
1078.47
1079.51
1078.76
1079.71
1078.98
1080.07
1077.56
1078.45
1078.05
1079.07
1077.09
1077.96
1077.72
1078.73
1080.96
1082.03
1081.14
1082.21
1080.65
1081.64
1080.97
1081.99
1080.11
1080.87
1080.68
1081.52
1077.41
1076.07
1078.61
1079.52
1080.5
1076.25
1077.66
1079.09
1080.07
1081.13
1075.93
1077.18
1078.4
1079.55
1080.67
1083.03
1083.5
1083.59
1084.01
1082.52
1083.07
1083.25
1083.71
1081.65
1082.26
1082.67
1083.22
1076.54
1077.02
1078.08
1078.74
1079.5
1080.19
1080.63
1081.32
1082.14
1082.83
1076.14
1076.53
1077.55
1078.24
1078.87
1079.66
1080.18
1081.05
1081.84
1082.75
1076.92
1077.71
1076.36
1077.05
1075.54
1075.75
1075.04
1075.15
1077.76
1078.69
1078.31
1079.3
1075.88
1076.58
1075.57
1076.24
1074.64
1074.74
1074.35
1074.42
1077.25
1078.21
1076.94
1077.88
1079.34
1080.49
1081.31
1082.71
1079.79
1080.99
1081.61
1082.97
1078.94
1080.04
1081.03
1082.41
1078.55
1079.67
1080.62
1081.93
1083.61
1083.79
1084.16
1083.72
1083.77
1084.11
1083.29
1083.52
1083.92
1083.48
1083.55
1083.91
1082.63
1082.94
1083.39
1083.11
1083.24
1083.65
1077.61
1078.29
1079.01
1079.44
1080.03
1080.66
1080.84
1081.33
1081.89
1081.84
1082.25
1082.78
1082.83
1083.01
1083.49
1077.07
1077.82
1078.64
1079.16
1079.95
1080.76
1080.59
1081.28
1082
1081.75
1082.25
1082.88
1082.82
1083.06
1083.62
1074.48
1074.24
1074.27
1073.96
1075.17
1074.86
1074.92
1074.55
1074.31
1073.79
1074.26
1073.76
1074.18
1073.7
1074.07
1073.63
1073.73
1073.94
1073.61
1073.85
1073.62
1073.45
1073.72
1073.43
1074.25
1073.93
1073.6
1073.33
1073.41
1073.16
1073.36
1073.1
1073.26
1072.79
1073.34
1072.9
1073.2
1072.71
1073.22
1072.77
1073.15
1072.61
1073.04
1072.55
1072.96
1072.52
1072.73
1072.37
1073.91
1073.69
1073.63
1073.39
1074.62
1074.43
1074.3
1074.09
1073.16
1072.87
1073.4
1073.14
1073.36
1073.12
1073.09
1072.89
1073.99
1073.79
1073.69
1073.53
1072.93
1072.64
1072.68
1072.44
1072.77
1072.34
1072.53
1072.26
1072.96
1072.5
1072.76
1072.46
1072.58
1072.19
1072.33
1072.1
1072.37
1072.04
1072.15
1071.95
1073.26
1073.47
1072.83
1073.05
1073.26
1073.48
1072.8
1073.03
1073.26
1073.46
1072.76
1072.96
1074.1
1074.95
1073.57
1073.15
1072.7
1075.11
1074.27
1073.76
1073.35
1072.88
1074.79
1073.97
1073.38
1072.98
1072.65
1073.84
1074.36
1073.43
1073.94
1073.82
1074.31
1073.37
1073.86
1073.75
1074.22
1073.26
1073.72
1075.31
1075.71
1074.43
1074.83
1073.92
1074.33
1073.53
1073.95
1073.09
1073.51
1074.92
1075.14
1074.08
1074.3
1073.5
1073.78
1073.13
1073.48
1072.84
1073.27
1073.63
1073.69
1073.32
1073.29
1074.4
1074.44
1074.02
1073.94
1072.86
1072.95
1073.13
1073.29
1073.08
1072.98
1072.85
1072.73
1073.73
1073.58
1073.47
1073.29
1072.65
1072.68
1072.44
1072.45
1072.58
1072.79
1072.43
1072.78
1072.82
1073.1
1072.62
1073.02
1072.38
1072.53
1072.27
1072.57
1072.21
1072.34
1072.12
1072.38
1075.07
1075.77
1076.44
1074.81
1075.61
1076.27
1074.98
1075.69
1076.37
1074.7
1075.5
1076.2
1074.84
1075.54
1076.23
1074.52
1075.36
1076.1
1076.24
1076.92
1077.65
1075.38
1076.08
1076.82
1074.89
1075.62
1076.38
1074.55
1075.28
1076.01
1074.32
1075.2
1076.01
1075.56
1076.29
1077.12
1074.75
1075.49
1076.32
1074.29
1075.08
1075.94
1074.08
1074.92
1075.78
1074.12
1075.04
1075.93
1072.57
1072.85
1073.63
1075.09
1072.7
1073
1073.81
1075.29
1072.52
1072.81
1073.59
1075.06
1072.6
1072.92
1073.74
1075.22
1072.44
1072.75
1073.5
1074.93
1072.41
1072.76
1073.56
1075.02
1072.44
1072.82
1073.68
1075.18
1072.35
1072.79
1073.69
1075.2
1072.27
1072.64
1073.42
1074.87
1072.29
1072.69
1073.41
1074.71
1072.39
1072.72
1073.43
1074.77
1072.43
1072.79
1073.45
1074.68
1072.17
1072.58
1073.42
1074.93
1072.17
1072.61
1073.37
1074.7
1072.07
1072.51
1073.39
1074.88
1072.07
1072.54
1073.32
1074.64
1072.59
1072.84
1073.55
1074.92
1072.78
1072.98
1073.58
1074.78
1072.58
1072.83
1073.53
1074.9
1072.77
1072.98
1073.58
1074.77
1072.56
1072.83
1073.5
1074.83
1072.73
1072.97
1073.57
1074.75
1072.55
1072.84
1073.48
1074.73
1072.7
1072.96
1073.55
1074.7
1072.57
1072.89
1073.5
1074.64
1073.06
1073.23
1073.77
1074.62
1073.38
1073.52
1074.08
1074.88
1073.03
1073.21
1073.75
1074.61
1073.35
1073.51
1074.07
1074.87
1072.96
1073.18
1073.73
1074.59
1073.28
1073.48
1074.05
1074.86
1072.87
1073.13
1073.7
1074.56
1073.2
1073.43
1074.02
1074.84
1072.75
1073.06
1073.65
1074.52
1073.09
1073.38
1074
1074.82
1072.52
1072.93
1073.59
1074.49
1072.83
1073.23
1073.9
1074.75
1072.64
1072.99
1073.62
1074.51
1072.96
1073.31
1073.95
1074.78
1072.42
1072.87
1073.56
1074.48
1072.71
1073.16
1073.86
1074.72
1072.32
1072.81
1073.52
1074.44
1072.6
1073.09
1073.81
1074.68
1077.34
1079.15
1080.71
1081.98
1082.97
1077.45
1079.25
1080.8
1082.07
1083.05
1077.32
1079.15
1080.71
1081.98
1082.96
1077.43
1079.24
1080.79
1082.06
1083.05
1077.3
1079.14
1080.7
1081.97
1082.96
1077.35
1079.16
1080.72
1082
1082.98
1077.39
1079.21
1080.77
1082.05
1083.03
1077.37
1079.19
1080.76
1082.04
1083.02
1077.28
1079.13
1080.69
1081.97
1082.95
1077.38
1079.26
1080.83
1082.11
1083.1
1077.3
1079.16
1080.73
1082
1082.99
1077.41
1079.29
1080.86
1082.14
1083.12
1077.28
1079.13
1080.7
1081.97
1082.96
1077.39
1079.28
1080.85
1082.13
1083.11
1077.25
1079.11
1080.68
1081.96
1082.95
1077.38
1079.28
1080.86
1082.14
1083.12
1077.35
1079.2
1080.76
1082.03
1083.01
1077.48
1079.36
1080.92
1082.19
1083.18
1077.35
1079.2
1080.76
1082.03
1083.02
1077.48
1079.36
1080.92
1082.19
1083.18
1077.35
1079.21
1080.78
1082.05
1083.04
1077.48
1079.37
1080.93
1082.2
1083.19
1077.39
1079.27
1080.84
1082.11
1083.1
1077.51
1079.4
1080.96
1082.24
1083.22
1077.47
1079.36
1080.93
1082.2
1083.19
1085.91
1086.23
1085.78
1086.1
1085.53
1085.88
1085.22
1085.63
1084.91
1085.38
1084.43
1084.98
1084.68
1085.21
1084.19
1084.72
1083.93
1084.41
1089.39
1093.23
1096.46
1098.99
1100.72
1089.34
1093.19
1096.47
1099.01
1100.77
1089.33
1093.19
1096.44
1098.97
1100.71
1089.28
1093.17
1096.45
1099.01
1100.76
1089.21
1093.12
1096.4
1098.94
1100.68
1089.16
1093.11
1096.4
1098.97
1100.74
1089.05
1093.03
1096.33
1098.89
1100.64
1089.01
1093.02
1096.34
1098.93
1100.7
1088.86
1092.9
1096.24
1098.82
1100.58
1088.85
1092.91
1096.27
1098.87
1100.65
1088.44
1092.59
1096.01
1098.64
1100.41
1088.48
1092.63
1096.06
1098.7
1100.49
1088.65
1092.75
1096.13
1098.74
1100.5
1088.68
1092.78
1096.18
1098.8
1100.58
1088.23
1092.43
1095.88
1098.53
1100.31
1088.26
1092.46
1095.92
1098.59
1100.39
1088.02
1092.26
1095.74
1098.42
1100.21
1088.02
1092.27
1095.77
1098.46
1100.27
1073.77
1074.25
1074.65
1074.09
1074.74
1074.67
1074.66
1074.56
1074.83
1074.7
1075.47
1075.32
1075.8
1075.63
1075.31
1075.17
1075.12
1075.02
1075.07
1075
1074.1
1073.94
1075.21
1075.74
1075.92
1075.96
1075.48
1075.4
1076.03
1075.24
1076.57
1077.39
1075.34
1075.6
1076.23
1075.49
1075.79
1075.82
1074.85
1074.76
1075.07
1074.93
1074.79
1074.64
1074.77
1074.97
1075.68
1075.53
1075.3
1075.16
1074.32
1074.09
1074.42
1074.23
1074.43
1074.51
1074.82
1075.28
1074.82
1073.24
1072.79
1072.59
1072.6
1072.82
1073.31
1072.94
1072.77
1072.82
1073.11
1074.8
1074.6
1074.58
1074.74
1075.1
1075.34
1075.16
1075.16
1075.33
1075.69
1075.52
1075.33
1075.32
1075.49
1075.85
1075.56
1075.39
1075.38
1075.56
1075.92
1075.07
1074.88
1074.86
1075.03
1075.38
1074.45
1073.88
1073.57
1073.49
1073.65
1075.03
1074.41
1074.08
1074
1074.19
1074.58
1074.15
1073.92
1073.92
1074.18
1075.64
1075.04
1074.74
1074.7
1074.93
1076.49
1075.87
1075.57
1075.52
1075.75
1074.82
1074.52
1074.39
1074.47
1074.78
1075
1074.61
1074.41
1074.44
1074.73
1075.65
1075.28
1075.09
1075.13
1075.42
1075.01
1074.75
1074.65
1074.76
1075.08
1075.28
1074.98
1074.86
1074.94
1075.25
1075.35
1075.09
1075.01
1075.12
1075.45
1073.99
1073.5
1073.25
1073.21
1073.4
1074.18
1073.82
1073.64
1073.68
1073.97
1074.58
1074.3
1074.2
1074.3
1074.62
1074.47
1074.22
1074.14
1074.26
1074.59
1074.29
1074
1073.88
1073.97
1074.29
1074.17
1073.91
1073.82
1073.94
1074.26
1074.33
1074.11
1074.06
1074.2
1074.54
1074.54
1074.32
1074.27
1074.41
1074.75
1075.25
1075.03
1074.98
1075.13
1075.47
1075.11
1074.91
1074.88
1075.04
1075.39
1074.85
1074.6
1074.53
1074.66
1075
1074.72
1074.49
1074.44
1074.58
1074.92
1073.48
1073.02
1072.81
1072.8
1073.01
1073.51
1073.16
1073
1073.06
1073.36
1073.74
1073.33
1073.13
1073.14
1073.38
1073.71
1073.41
1073.29
1073.38
1073.69
1073.94
1073.66
1073.57
1073.67
1073.99
1073.94
1073.6
1073.43
1073.48
1073.78
1074.38
1074.15
1074.1
1074.23
1074.57
1074.86
1074.65
1074.62
1074.78
1075.13
1074.36
1074.12
1074.05
1074.18
1074.51
1074.16
1074.41
1074.18
1074.46
1073.52
1073.81
1073.51
1073.77
1074.21
1074.24
1074.47
1074.42
1073.53
1073.54
1073.8
1073.72
1074.83
1075.49
1075.05
1075.68
1074.84
1075.43
1075.1
1075.68
1075.11
1074.88
1074.97
1074.82
1075.34
1075.57
1074.8
1075.08
1074.68
1074.99
1074.15
1074.44
1073.97
1074.26
1075.43
1075.73
1075.24
1075.59
1075.9
1076.27
1076.08
1076.59
1076.25
1076.73
1076.04
1076.65
1076.26
1076.79
1075.94
1076.77
1076.08
1076.82
1076.39
1077.14
1076.82
1077.59
1074.44
1074.61
1074.57
1074.76
1073.6
1073.65
1073.73
1073.78
1075.37
1075.85
1075.26
1075.69
1074.77
1074.94
1075.04
1075.17
1073.93
1073.95
1074.18
1074.15
1075.57
1076.04
1075.86
1076.29
1076.19
1077.11
1076.98
1078.03
1076.12
1077.12
1076.85
1077.96
1076.39
1077.27
1077.17
1078.19
1076.7
1077.57
1077.43
1078.43
1076.14
1076.46
1076.71
1077.21
1076.09
1076.35
1076.8
1077.27
1076.01
1076.14
1076.95
1077.35
1074.41
1073.54
1075.26
1076.17
1077.32
1073.51
1074.34
1075.19
1076.15
1077.53
1073.58
1074.52
1075.59
1076.77
1077.97
1076.96
1077.18
1078.5
1078.95
1076.72
1076.94
1078.41
1078.85
1076.37
1076.55
1078.29
1078.74
1073.52
1073.63
1074.41
1074.55
1075.33
1075.47
1076.44
1076.63
1078.43
1078.91
1073.58
1073.69
1074.61
1074.9
1075.78
1076.16
1077.14
1077.59
1078.97
1079.55
1074.84
1075.35
1074.98
1075.5
1073.67
1073.7
1073.78
1073.77
1076.3
1077.06
1076.13
1076.85
1075.09
1075.69
1075.31
1075.95
1073.91
1073.94
1074.11
1074.16
1076.41
1077.27
1076.67
1077.57
1077.88
1078.88
1079.9
1081.17
1077.63
1078.59
1079.54
1080.73
1078.08
1079.11
1080.2
1081.51
1078.26
1079.36
1080.36
1081.65
1077.24
1077.42
1078.62
1078.62
1077.01
1077.21
1078.56
1078.54
1076.68
1076.97
1078.5
1078.49
1073.87
1074.29
1074.8
1075.19
1075.69
1076.03
1076.8
1077.12
1078.6
1078.56
1073.92
1074.36
1075.29
1075.7
1076.5
1076.79
1077.71
1077.82
1078.95
1078.81
1072.45
1072.43
1072.71
1072.6
1072.93
1072.91
1073.21
1073.09
1072.11
1071.86
1072.36
1072.1
1072.12
1071.89
1072.38
1072.14
1072.34
1072.12
1072.31
1072.14
1071.94
1072.15
1072.84
1073.13
1073.33
1073.61
1072.66
1072.99
1072.56
1072.85
1072.46
1072.76
1071.71
1071.59
1071.93
1071.8
1071.71
1071.57
1071.95
1071.79
1071.74
1071.55
1071.92
1071.7
1072.19
1071.95
1072.45
1072.16
1072.34
1072.32
1072.47
1072.4
1072.89
1072.87
1073.02
1072.98
1072.09
1072.01
1071.98
1071.94
1072.64
1072.53
1072.86
1072.69
1073.21
1073.13
1073.43
1073.31
1072.26
1072.12
1072.46
1072.26
1071.82
1071.61
1071.78
1071.66
1071.72
1071.55
1071.72
1071.62
1071.98
1071.73
1071.87
1071.73
1072.16
1071.88
1071.99
1071.83
1071.61
1071.65
1071.51
1071.58
1071.63
1071.68
1071.51
1071.59
1071.68
1071.72
1071.53
1071.59
1072.3
1072.83
1071.95
1071.7
1071.56
1072.84
1072.33
1071.98
1071.74
1071.61
1072.82
1072.29
1071.92
1071.71
1071.62
1071.82
1072.11
1071.78
1072.09
1071.82
1072.09
1071.76
1072.06
1071.83
1072.07
1071.74
1072.02
1072.84
1072.94
1072.33
1072.46
1072.01
1072.18
1071.8
1072.01
1071.72
1071.97
1072.78
1072.82
1072.26
1072.32
1071.93
1072.04
1071.76
1071.93
1071.72
1071.97
1072.24
1072.2
1072.33
1072.24
1072.78
1072.7
1072.9
1072.74
1071.99
1072
1071.91
1071.97
1072.49
1072.35
1072.65
1072.52
1073.07
1072.87
1073.25
1073.06
1072.13
1072.11
1072.27
1072.26
1071.82
1071.94
1071.81
1072.04
1071.76
1071.92
1071.75
1072
1071.92
1072.03
1071.89
1072.13
1072.05
1072.17
1072
1072.24
1072.46
1072.79
1072.55
1072.93
1072.42
1072.77
1072.51
1072.92
1072.38
1072.77
1072.46
1072.93
1073.17
1073.6
1072.72
1073.15
1072.46
1072.9
1072.31
1072.76
1072.41
1072.97
1073
1073.48
1072.53
1073.04
1072.32
1072.86
1072.29
1072.85
1072.46
1073.09
1071.74
1072.29
1073.25
1074.84
1071.94
1072.49
1073.46
1075.05
1071.73
1072.28
1073.23
1074.83
1071.92
1072.46
1073.42
1075
1071.72
1072.26
1073.17
1074.71
1071.84
1072.37
1073.29
1074.84
1072.05
1072.56
1073.5
1075.06
1072.21
1072.69
1073.62
1075.15
1071.77
1072.3
1073.18
1074.7
1071.87
1072.4
1073.2
1074.56
1071.74
1072.28
1073.12
1074.57
1071.85
1072.39
1073.18
1074.48
1071.85
1072.36
1073.27
1074.82
1071.91
1072.43
1073.24
1074.6
1071.96
1072.44
1073.34
1074.85
1071.98
1072.47
1073.27
1074.61
1071.68
1072.23
1073.13
1074.64
1071.77
1072.31
1073.13
1074.47
1071.69
1072.24
1073.13
1074.63
1071.79
1072.33
1073.14
1074.47
1071.72
1072.27
1073.12
1074.58
1071.81
1072.36
1073.16
1074.46
1071.78
1072.33
1073.13
1074.5
1071.85
1072.39
1073.17
1074.44
1071.86
1072.41
1073.17
1074.42
1071.99
1072.53
1073.29
1074.26
1072.27
1072.81
1073.59
1074.49
1071.99
1072.53
1073.29
1074.26
1072.27
1072.81
1073.59
1074.49
1071.99
1072.53
1073.3
1074.27
1072.27
1072.82
1073.6
1074.5
1071.99
1072.54
1073.3
1074.26
1072.28
1072.83
1073.61
1074.51
1072
1072.56
1073.31
1074.26
1072.29
1072.85
1073.63
1074.52
1072.09
1072.64
1073.38
1074.32
1072.34
1072.9
1073.67
1074.57
1072.04
1072.59
1073.34
1074.29
1072.3
1072.87
1073.64
1074.54
1072.16
1072.69
1073.43
1074.37
1072.41
1072.96
1073.72
1074.6
1072.23
1072.75
1073.47
1074.41
1072.5
1073.02
1073.77
1074.64
1077.18
1079.06
1080.65
1081.94
1082.93
1077.3
1079.16
1080.74
1082.03
1083.02
1077.18
1079.06
1080.65
1081.94
1082.93
1077.3
1079.16
1080.74
1082.03
1083.02
1077.18
1079.06
1080.65
1081.94
1082.93
1077.24
1079.1
1080.68
1081.97
1082.96
1077.32
1079.17
1080.74
1082.03
1083.02
1077.34
1079.18
1080.75
1082.03
1083.02
1077.19
1079.07
1080.66
1081.94
1082.94
1077.29
1079.21
1080.8
1082.09
1083.08
1077.19
1079.09
1080.68
1081.97
1082.96
1077.3
1079.23
1080.83
1082.11
1083.1
1077.22
1079.09
1080.67
1081.96
1082.95
1077.33
1079.24
1080.83
1082.11
1083.1
1077.23
1079.1
1080.67
1081.96
1082.95
1077.36
1079.27
1080.85
1082.13
1083.12
1077.19
1079.1
1080.7
1081.99
1082.98
1077.32
1079.26
1080.86
1082.15
1083.14
1077.2
1079.11
1080.71
1082
1082.99
1077.32
1079.27
1080.86
1082.15
1083.15
1077.21
1079.13
1080.73
1082.02
1083.01
1077.34
1079.28
1080.88
1082.17
1083.16
1077.27
1079.2
1080.8
1082.08
1083.08
1077.38
1079.32
1080.92
1082.2
1083.19
1077.36
1079.29
1080.89
1082.18
1083.17
1081.78
1082.14
1081.83
1082.2
1081.94
1082.32
1082.12
1082.49
1082.41
1082.73
1083.14
1083.56
1082.82
1083.18
1083.43
1083.88
1083.68
1084.14
1086.37
1091.05
1094.83
1097.68
1099.57
1086.27
1090.99
1094.82
1097.69
1099.62
1086.41
1091.08
1094.85
1097.7
1099.59
1086.32
1091.04
1094.84
1097.72
1099.64
1086.51
1091.15
1094.89
1097.73
1099.62
1086.41
1091.1
1094.89
1097.76
1099.67
1086.65
1091.24
1094.97
1097.79
1099.66
1086.54
1091.19
1094.95
1097.81
1099.71
1086.85
1091.38
1095.07
1097.87
1099.73
1086.71
1091.3
1095.03
1097.87
1099.77
1087.34
1091.72
1095.32
1098.07
1099.91
1087.25
1091.67
1095.3
1098.08
1099.94
1087.09
1091.54
1095.18
1097.96
1099.82
1086.96
1091.46
1095.15
1097.96
1099.84
1087.57
1091.9
1095.46
1098.18
1100.01
1087.52
1091.87
1095.46
1098.2
1100.05
1087.8
1092.08
1095.6
1098.3
1100.11
1087.78
1092.08
1095.61
1098.33
1100.16
1073.4
1073.86
1073.55
1073.06
1072.47
1072.71
1072.46
1072.74
1072.94
1073.23
1072.94
1073.19
1077.7
1077.62
1077.43
1077.12
1076.71
1076.22
1077.73
1077.66
1077.48
1077.19
1076.82
1076.38
1077.9
1078.2
1077.81
1078.1
1077.6
1077.86
1077.25
1077.46
1076.79
1076.95
1076.25
1076.42
1075.69
1075.19
1074.77
1074.43
1074.17
1073.98
1075.91
1075.46
1075.05
1074.72
1074.45
1074.27
1077.33
1077.18
1077.2
1077.4
1077.77
1077.25
1077.1
1077.13
1077.32
1077.69
1077.06
1076.91
1076.93
1077.13
1077.5
1076.75
1076.6
1076.62
1076.81
1077.18
1076.33
1076.18
1076.19
1076.38
1076.75
1075.83
1075.67
1075.67
1075.86
1076.22
1077.36
1077.21
1077.24
1077.43
1077.8
1077.29
1077.14
1077.16
1077.36
1077.73
1077.1
1076.95
1076.97
1077.17
1077.54
1076.81
1076.66
1076.68
1076.87
1077.24
1076.44
1076.28
1076.29
1076.48
1076.85
1075.99
1075.82
1075.83
1076.01
1076.38
1077.53
1077.38
1077.41
1077.6
1077.97
1077.83
1077.68
1077.71
1077.91
1078.28
1077.44
1077.29
1077.32
1077.52
1077.89
1077.73
1077.58
1077.61
1077.81
1078.17
1077.22
1077.07
1077.1
1077.29
1077.66
1077.48
1077.34
1077.36
1077.55
1077.92
1076.87
1076.72
1076.74
1076.94
1077.3
1077.08
1076.93
1076.95
1077.14
1077.51
1076.41
1076.25
1076.26
1076.45
1076.82
1076.57
1076.41
1076.42
1076.61
1076.98
1075.86
1075.7
1075.7
1075.89
1076.25
1076.03
1075.87
1075.87
1076.05
1076.42
1075.29
1075.12
1075.11
1075.29
1075.65
1074.78
1074.59
1074.56
1074.73
1075.08
1074.34
1074.12
1074.07
1074.21
1074.56
1073.96
1073.71
1073.63
1073.76
1074.09
1073.67
1073.39
1073.28
1073.38
1073.71
1073.46
1073.15
1073.04
1073.13
1073.44
1075.51
1075.33
1075.33
1075.5
1075.86
1075.05
1074.85
1074.83
1075
1075.35
1074.62
1074.41
1074.38
1074.53
1074.87
1074.27
1074.03
1073.98
1074.11
1074.45
1073.99
1073.73
1073.66
1073.78
1074.12
1073.79
1073.53
1073.44
1073.56
1073.89
1077.65
1077.5
1077.22
1076.84
1076.34
1075.76
1077.69
1077.54
1077.27
1076.91
1076.46
1075.95
1077.85
1078.15
1077.68
1077.97
1077.38
1077.63
1076.95
1077.14
1076.4
1076.54
1075.76
1075.9
1075.16
1074.61
1074.18
1073.9
1073.81
1073.85
1075.42
1074.94
1074.55
1074.29
1074.16
1074.17
1077.28
1077.14
1077.16
1077.36
1077.73
1077.13
1076.98
1077
1077.2
1077.57
1076.85
1076.7
1076.73
1076.92
1077.3
1076.46
1076.31
1076.33
1076.53
1076.9
1075.96
1075.81
1075.83
1076.02
1076.39
1075.38
1075.22
1075.23
1075.42
1075.79
1077.32
1077.17
1077.2
1077.39
1077.77
1077.17
1077.02
1077.04
1077.24
1077.61
1076.9
1076.75
1076.78
1076.97
1077.34
1076.53
1076.38
1076.4
1076.6
1076.97
1076.08
1075.92
1075.94
1076.13
1076.5
1075.56
1075.4
1075.41
1075.6
1075.97
1077.48
1077.34
1077.36
1077.56
1077.93
1077.78
1077.64
1077.67
1077.86
1078.23
1077.31
1077.17
1077.19
1077.39
1077.76
1077.6
1077.45
1077.48
1077.67
1078.04
1077.01
1076.86
1076.89
1077.08
1077.46
1077.26
1077.11
1077.14
1077.33
1077.7
1076.57
1076.42
1076.45
1076.64
1077.01
1076.76
1076.61
1076.64
1076.83
1077.2
1076.02
1075.86
1075.88
1076.08
1076.45
1076.16
1076
1076.02
1076.21
1076.58
1075.38
1075.22
1075.23
1075.42
1075.79
1075.51
1075.35
1075.37
1075.55
1075.92
1074.76
1074.59
1074.6
1074.78
1075.15
1074.2
1074.02
1074.01
1074.18
1074.54
1073.75
1073.55
1073.52
1073.67
1074.03
1073.45
1073.21
1073.15
1073.29
1073.63
1073.31
1073.04
1072.95
1073.07
1073.4
1073.33
1073.03
1072.92
1073.01
1073.33
1075.03
1074.86
1074.86
1075.04
1075.41
1074.53
1074.35
1074.34
1074.51
1074.87
1074.13
1073.93
1073.9
1074.06
1074.42
1073.85
1073.63
1073.58
1073.72
1074.07
1073.7
1073.46
1073.39
1073.52
1073.86
1073.69
1073.43
1073.35
1073.47
1073.8
1073.87
1073.76
1074.54
1075.15
1075.2
1075.34
1074.77
1073.5
1073.68
1073.53
1074.08
1073.94
1073.88
1074.24
1074.33
1074.56
1073.45
1073.44
1073.86
1073.89
1073.64
1073.71
1074.03
1074.11
1074.68
1074.67
1074.22
1074.21
1073.64
1073.6
1073.41
1073.54
1073.59
1073.43
1073.99
1074.48
1073.88
1073.02
1072.59
1072.41
1072.43
1072.67
1073.14
1072.78
1072.62
1072.68
1072.98
1074.13
1073.95
1073.94
1074.12
1074.48
1074.76
1074.59
1074.6
1074.78
1075.15
1074.8
1074.63
1074.63
1074.82
1075.18
1074.95
1074.78
1074.79
1074.98
1075.34
1074.37
1074.2
1074.19
1074.37
1074.74
1072.76
1072.37
1072.2
1072.24
1072.48
1072.96
1072.59
1072.44
1072.49
1072.75
1072.99
1072.68
1072.57
1072.65
1072.97
1073.44
1073.11
1072.99
1073.07
1073.37
1073.49
1073.26
1073.21
1073.34
1073.69
1073.39
1073.12
1073.03
1073.15
1073.48
1073.81
1073.6
1073.56
1073.72
1074.07
1073.89
1073.67
1073.62
1073.77
1074.11
1074.13
1073.93
1073.9
1074.05
1074.41
1072.72
1072.34
1072.18
1072.22
1072.47
1072.93
1072.65
1072.55
1072.65
1072.98
1073.42
1073.19
1073.15
1073.29
1073.64
1073.46
1073.25
1073.21
1073.36
1073.72
1073.18
1072.94
1072.88
1073.01
1073.36
1073.26
1073.03
1072.98
1073.13
1073.47
1073.61
1073.4
1073.38
1073.54
1073.89
1073.7
1073.5
1073.48
1073.64
1074
1074.27
1074.08
1074.07
1074.24
1074.6
1074.27
1074.09
1074.08
1074.26
1074.62
1073.79
1073.59
1073.56
1073.72
1074.08
1073.79
1073.59
1073.57
1073.74
1074.1
1072.85
1072.45
1072.28
1072.31
1072.56
1073.03
1072.71
1072.58
1072.66
1072.97
1072.79
1072.45
1072.31
1072.37
1072.65
1073.05
1072.78
1072.69
1072.8
1073.13
1073.13
1072.89
1072.82
1072.95
1073.29
1072.91
1072.63
1072.52
1072.62
1072.94
1073.56
1073.36
1073.33
1073.49
1073.85
1074.07
1073.89
1073.88
1074.05
1074.42
1073.45
1073.24
1073.2
1073.36
1073.71
1074.07
1073.73
1073.6
1073.66
1073.9
1074.36
1074.08
1074.11
1073.43
1073.42
1074.14
1074.19
1073.45
1073.47
1074.78
1075.51
1074.79
1075.45
1074.85
1074.82
1075.33
1074.07
1074.1
1073.41
1073.39
1074.13
1074.18
1073.43
1073.47
1074.83
1075.6
1074.83
1075.51
1074.89
1074.83
1075.38
1074.08
1074.11
1073.4
1073.38
1074.15
1074.2
1073.43
1073.47
1074.87
1075.8
1074.87
1075.68
1074.93
1074.87
1075.52
1074.21
1074.24
1073.51
1073.49
1074.28
1074.34
1073.54
1073.59
1075.05
1076.03
1075.04
1075.91
1075.09
1075.01
1075.71
1074.43
1074.47
1073.74
1073.72
1074.5
1074.57
1073.77
1073.81
1075.27
1076.19
1075.26
1076.09
1075.3
1075.24
1075.91
1074.83
1074.86
1074.15
1074.13
1074.89
1074.95
1074.18
1074.21
1075.63
1076.48
1075.61
1076.38
1075.64
1075.58
1076.2
1072.37
1072.37
1072.84
1072.84
1072.37
1072.38
1072.85
1072.86
1072.02
1071.75
1072.04
1071.8
1072.04
1072.08
1071.88
1072.34
1072.34
1072.82
1072.81
1072.36
1072.37
1072.83
1072.85
1071.98
1071.76
1072
1071.81
1072.02
1072.08
1071.89
1072.33
1072.34
1072.81
1072.8
1072.36
1072.39
1072.83
1072.85
1072
1071.85
1072.03
1071.89
1072.07
1072.13
1071.97
1072.44
1072.45
1072.92
1072.9
1072.49
1072.52
1072.94
1072.97
1072.14
1072.06
1072.18
1072.1
1072.23
1072.3
1072.17
1072.68
1072.69
1073.15
1073.13
1072.73
1072.78
1073.17
1073.2
1072.41
1072.36
1072.45
1072.39
1072.51
1072.58
1072.45
1073.11
1073.13
1073.57
1073.56
1073.17
1073.21
1073.6
1073.62
1072.85
1072.76
1072.89
1072.79
1072.93
1073
1072.85
1077.82
1077.71
1077.48
1077.3
1076.99
1076.8
1076.28
1076.13
1076.41
1076.23
1076.96
1076.78
1077.35
1077.19
1077.67
1077.55
1076.85
1076.61
1076.53
1076.2
1076
1075.69
1075.71
1075.32
1078.26
1078.98
1078.13
1078.81
1077.94
1078.64
1077.74
1078.4
1077.26
1077.63
1076.92
1077.39
1078.23
1077.83
1076.13
1075.54
1075.81
1075.38
1075.36
1074.87
1074.98
1074.61
1076.85
1076.24
1076.5
1076.04
1077.43
1076.83
1079.81
1080.29
1079.47
1079.97
1079.46
1080.07
1079.06
1079.61
1078.97
1079.8
1078.36
1079.12
1077.89
1078.64
1077.36
1078.12
1076.68
1076.58
1076.17
1076.13
1075.56
1075.42
1075.16
1075.02
1077.15
1077.3
1077.75
1077.79
1075.74
1075.75
1075.36
1075.44
1074.8
1074.69
1074.46
1074.4
1076.65
1076.9
1076.22
1076.58
1078.1
1079.02
1078.47
1079.51
1078.76
1079.71
1078.98
1080.07
1077.56
1078.45
1078.05
1079.07
1077.09
1077.96
1077.72
1078.73
1080.97
1082.05
1081.15
1082.22
1080.65
1081.64
1080.97
1081.99
1080.11
1080.87
1080.68
1081.52
1077.41
1076.08
1078.61
1079.52
1080.5
1076.25
1077.66
1079.09
1080.07
1081.13
1075.93
1077.18
1078.4
1079.55
1080.67
1083.04
1083.51
1083.6
1084.02
1082.52
1083.07
1083.25
1083.71
1081.65
1082.26
1082.67
1083.22
1076.54
1077.02
1078.08
1078.74
1079.5
1080.19
1080.63
1081.32
1082.14
1082.84
1076.14
1076.53
1077.55
1078.24
1078.87
1079.66
1080.18
1081.05
1081.84
1082.76
1076.92
1077.71
1076.36
1077.05
1075.54
1075.75
1075.04
1075.15
1077.76
1078.69
1078.31
1079.3
1075.88
1076.58
1075.57
1076.24
1074.64
1074.74
1074.35
1074.42
1077.25
1078.21
1076.94
1077.88
1079.35
1080.49
1081.31
1082.71
1079.79
1080.99
1081.61
1082.98
1078.94
1080.04
1081.03
1082.41
1078.55
1079.67
1080.62
1081.93
1083.62
1083.8
1084.17
1083.73
1083.78
1084.11
1083.29
1083.52
1083.92
1083.48
1083.55
1083.91
1082.63
1082.94
1083.39
1083.11
1083.24
1083.65
1077.61
1078.29
1079.01
1079.44
1080.03
1080.66
1080.84
1081.33
1081.89
1081.84
1082.25
1082.78
1082.83
1083.01
1083.49
1077.07
1077.82
1078.64
1079.16
1079.95
1080.76
1080.59
1081.28
1082
1081.75
1082.26
1082.89
1082.82
1083.06
1083.62
1074.49
1074.24
1074.27
1073.96
1075.17
1074.86
1074.92
1074.55
1074.32
1073.8
1074.27
1073.78
1074.18
1073.7
1074.07
1073.63
1073.73
1073.94
1073.61
1073.85
1073.62
1073.45
1073.72
1073.44
1074.25
1073.93
1073.6
1073.33
1073.41
1073.16
1073.36
1073.1
1073.26
1072.79
1073.35
1072.91
1073.2
1072.71
1073.22
1072.77
1073.15
1072.61
1073.04
1072.55
1072.96
1072.52
1072.73
1072.37
1073.91
1073.69
1073.63
1073.39
1074.62
1074.43
1074.3
1074.09
1073.16
1072.87
1073.4
1073.14
1073.36
1073.12
1073.09
1072.89
1073.99
1073.79
1073.69
1073.53
1072.93
1072.64
1072.68
1072.44
1072.77
1072.34
1072.53
1072.26
1072.96
1072.5
1072.76
1072.46
1072.58
1072.19
1072.33
1072.1
1072.37
1072.04
1072.15
1071.95
1073.26
1073.47
1072.83
1073.05
1073.26
1073.48
1072.8
1073.03
1073.26
1073.46
1072.76
1072.96
1074.1
1074.95
1073.57
1073.15
1072.7
1075.11
1074.27
1073.77
1073.36
1072.88
1074.79
1073.97
1073.38
1072.98
1072.65
1073.84
1074.36
1073.43
1073.94
1073.82
1074.31
1073.38
1073.86
1073.75
1074.22
1073.26
1073.72
1075.32
1075.71
1074.43
1074.83
1073.92
1074.33
1073.53
1073.95
1073.09
1073.51
1074.92
1075.14
1074.08
1074.3
1073.51
1073.78
1073.13
1073.48
1072.84
1073.27
1073.63
1073.69
1073.32
1073.29
1074.4
1074.44
1074.02
1073.94
1072.86
1072.95
1073.13
1073.29
1073.08
1072.98
1072.85
1072.73
1073.73
1073.58
1073.47
1073.29
1072.65
1072.68
1072.44
1072.45
1072.58
1072.79
1072.43
1072.78
1072.82
1073.1
1072.62
1073.02
1072.38
1072.53
1072.27
1072.57
1072.21
1072.34
1072.12
1072.38
1075.07
1075.78
1076.44
1074.81
1075.61
1076.28
1074.98
1075.69
1076.37
1074.7
1075.5
1076.2
1074.84
1075.54
1076.23
1074.52
1075.36
1076.1
1076.24
1076.92
1077.65
1075.38
1076.08
1076.82
1074.89
1075.62
1076.38
1074.55
1075.28
1076.01
1074.32
1075.2
1076.01
1075.56
1076.29
1077.12
1074.75
1075.49
1076.32
1074.29
1075.08
1075.94
1074.08
1074.92
1075.78
1074.12
1075.04
1075.93
1072.58
1072.85
1073.63
1075.1
1072.71
1073.01
1073.82
1075.29
1072.52
1072.81
1073.59
1075.06
1072.6
1072.92
1073.74
1075.22
1072.44
1072.75
1073.5
1074.93
1072.41
1072.76
1073.56
1075.02
1072.44
1072.82
1073.68
1075.18
1072.35
1072.79
1073.68
1075.19
1072.27
1072.64
1073.42
1074.87
1072.29
1072.69
1073.41
1074.71
1072.39
1072.72
1073.43
1074.77
1072.43
1072.79
1073.45
1074.68
1072.17
1072.58
1073.42
1074.93
1072.17
1072.61
1073.37
1074.7
1072.07
1072.51
1073.39
1074.88
1072.07
1072.54
1073.32
1074.64
1072.6
1072.84
1073.55
1074.92
1072.78
1072.98
1073.58
1074.78
1072.58
1072.83
1073.53
1074.9
1072.77
1072.98
1073.58
1074.77
1072.56
1072.83
1073.5
1074.83
1072.73
1072.97
1073.57
1074.75
1072.55
1072.84
1073.48
1074.73
1072.7
1072.96
1073.55
1074.7
1072.57
1072.89
1073.5
1074.64
1073.06
1073.23
1073.77
1074.62
1073.38
1073.52
1074.08
1074.88
1073.03
1073.21
1073.75
1074.61
1073.35
1073.51
1074.07
1074.87
1072.96
1073.18
1073.73
1074.59
1073.28
1073.48
1074.05
1074.86
1072.87
1073.13
1073.7
1074.56
1073.2
1073.43
1074.02
1074.84
1072.75
1073.06
1073.65
1074.52
1073.09
1073.38
1074
1074.82
1072.52
1072.93
1073.59
1074.49
1072.83
1073.23
1073.9
1074.75
1072.64
1072.99
1073.62
1074.51
1072.96
1073.31
1073.95
1074.78
1072.42
1072.87
1073.56
1074.48
1072.71
1073.16
1073.86
1074.72
1072.32
1072.81
1073.52
1074.44
1072.6
1073.09
1073.81
1074.68
1077.34
1079.16
1080.71
1081.98
1082.97
1077.45
1079.25
1080.8
1082.07
1083.06
1077.32
1079.15
1080.71
1081.98
1082.96
1077.43
1079.23
1080.79
1082.06
1083.04
1077.3
1079.14
1080.7
1081.97
1082.96
1077.35
1079.16
1080.72
1082
1082.98
1077.39
1079.21
1080.77
1082.05
1083.03
1077.37
1079.19
1080.76
1082.04
1083.02
1077.28
1079.13
1080.69
1081.97
1082.95
1077.38
1079.26
1080.83
1082.11
1083.1
1077.3
1079.16
1080.73
1082
1082.99
1077.41
1079.29
1080.86
1082.14
1083.12
1077.28
1079.13
1080.7
1081.97
1082.96
1077.39
1079.28
1080.85
1082.13
1083.11
1077.25
1079.11
1080.68
1081.96
1082.95
1077.38
1079.28
1080.86
1082.14
1083.12
1077.35
1079.2
1080.76
1082.03
1083.01
1077.48
1079.36
1080.92
1082.19
1083.17
1077.35
1079.2
1080.76
1082.03
1083.02
1077.48
1079.36
1080.92
1082.19
1083.18
1077.35
1079.21
1080.78
1082.05
1083.04
1077.48
1079.37
1080.93
1082.2
1083.19
1077.39
1079.27
1080.84
1082.11
1083.1
1077.51
1079.4
1080.96
1082.24
1083.22
1077.47
1079.36
1080.93
1082.2
1083.19
1085.92
1086.23
1085.78
1086.1
1085.53
1085.88
1085.22
1085.63
1084.91
1085.38
1084.43
1084.98
1084.68
1085.22
1084.19
1084.72
1083.93
1084.42
1089.4
1093.23
1096.46
1098.99
1100.72
1089.34
1093.19
1096.47
1099.01
1100.77
1089.33
1093.19
1096.44
1098.97
1100.71
1089.28
1093.17
1096.45
1099.01
1100.77
1089.21
1093.12
1096.4
1098.94
1100.68
1089.16
1093.11
1096.4
1098.97
1100.74
1089.05
1093.03
1096.33
1098.89
1100.64
1089.01
1093.02
1096.34
1098.93
1100.7
1088.86
1092.9
1096.24
1098.82
1100.58
1088.85
1092.91
1096.27
1098.87
1100.65
1088.44
1092.59
1096.01
1098.64