/*--------------------------------*- C++ -*----------------------------------*\
  =========                 |
  \\      /  F ield         | OpenFOAM: The Open Source CFD Toolbox
   \\    /   O peration     | Website:  https://openfoam.org
    \\  /    A nd           | Version:  13
     \\/     M anipulation  |
\*---------------------------------------------------------------------------*/
FoamFile
{
    format      ascii;
    class       volScalarField;
    location    "159.831886";
    object      T;
}
// * * * * * * * * * * * * * * * * * * * * * * * * * * * * * * * * * * * * * //

dimensions      [0 0 0 1 0 0 0];

internalField   nonuniform List<scalar> 
5712
(
1044.69
1044.54
1044.29
1044.07
1043.69
1043.46
1042.83
1042.64
1042.98
1042.77
1043.65
1043.44
1044.14
1043.93
1044.5
1044.34
1043.52
1043.23
1043.13
1042.73
1042.48
1042.1
1042.12
1041.65
1045.23
1046.13
1045.08
1045.91
1044.86
1045.72
1044.62
1045.42
1044.02
1044.48
1043.61
1044.18
1045.21
1044.72
1042.64
1041.92
1042.25
1041.72
1041.69
1041.09
1041.23
1040.78
1043.53
1042.78
1043.1
1042.53
1044.23
1043.51
1047.14
1047.74
1046.72
1047.33
1046.73
1047.48
1046.23
1046.92
1046.13
1047.14
1045.37
1046.31
1044.8
1045.72
1044.15
1045.08
1043.32
1043.19
1042.69
1042.64
1041.94
1041.77
1041.45
1041.28
1043.89
1044.08
1044.63
1044.68
1042.17
1042.18
1041.69
1041.79
1041.01
1040.87
1040.59
1040.51
1043.28
1043.59
1042.75
1043.19
1045.06
1046.19
1045.51
1046.8
1045.87
1047.03
1046.14
1047.48
1044.4
1045.49
1045
1046.25
1043.81
1044.89
1044.6
1045.83
1048.57
1049.89
1048.79
1050.1
1048.19
1049.41
1048.58
1049.83
1047.53
1048.46
1048.23
1049.26
1044.21
1042.57
1045.69
1046.81
1048.01
1042.79
1044.52
1046.28
1047.48
1048.78
1042.39
1043.93
1045.42
1046.84
1048.21
1051.11
1051.69
1051.8
1052.32
1050.49
1051.16
1051.38
1051.94
1049.42
1050.17
1050.68
1051.34
1043.15
1043.74
1045.04
1045.85
1046.78
1047.63
1048.17
1049.01
1050.02
1050.87
1042.65
1043.13
1044.38
1045.23
1046
1046.98
1047.61
1048.68
1049.65
1050.78
1043.61
1044.58
1042.92
1043.78
1041.92
1042.18
1041.31
1041.44
1044.64
1045.79
1045.31
1046.53
1042.33
1043.19
1041.96
1042.78
1040.81
1040.93
1040.46
1040.54
1044.02
1045.19
1043.64
1044.78
1046.59
1047.99
1049.01
1050.72
1047.13
1048.6
1049.37
1051.05
1046.09
1047.45
1048.66
1050.35
1045.61
1046.98
1048.16
1049.76
1051.83
1052.05
1052.5
1051.96
1052.02
1052.44
1051.43
1051.71
1052.2
1051.67
1051.75
1052.2
1050.62
1051
1051.55
1051.22
1051.37
1051.87
1044.46
1045.29
1046.18
1046.71
1047.43
1048.21
1048.42
1049.03
1049.71
1049.65
1050.16
1050.81
1050.86
1051.09
1051.68
1043.79
1044.72
1045.72
1046.36
1047.33
1048.32
1048.12
1048.97
1049.85
1049.55
1050.16
1050.94
1050.85
1051.15
1051.84
1040.62
1040.32
1040.36
1039.97
1041.46
1041.09
1041.15
1040.7
1040.41
1039.76
1040.34
1039.74
1040.24
1039.66
1040.11
1039.57
1039.7
1039.95
1039.54
1039.84
1039.56
1039.35
1039.68
1039.33
1040.33
1039.94
1039.53
1039.21
1039.3
1038.99
1039.23
1038.92
1039.11
1038.53
1039.22
1038.67
1039.04
1038.44
1039.07
1038.51
1038.98
1038.32
1038.84
1038.24
1038.74
1038.2
1038.47
1038.02
1039.91
1039.64
1039.57
1039.27
1040.79
1040.56
1040.39
1040.14
1039
1038.64
1039.29
1038.97
1039.24
1038.95
1038.91
1038.66
1040.01
1039.77
1039.64
1039.45
1038.71
1038.36
1038.41
1038.1
1038.51
1037.98
1038.22
1037.89
1038.75
1038.19
1038.5
1038.13
1038.28
1037.81
1037.97
1037.69
1038.02
1037.61
1037.75
1037.51
1039.11
1039.37
1038.59
1038.86
1039.12
1039.39
1038.55
1038.84
1039.12
1039.36
1038.5
1038.75
1040.15
1041.19
1039.49
1038.98
1038.43
1041.38
1040.35
1039.74
1039.23
1038.65
1041
1039.99
1039.27
1038.78
1038.37
1039.83
1040.47
1039.33
1039.95
1039.8
1040.41
1039.26
1039.85
1039.72
1040.3
1039.12
1039.68
1041.64
1042.12
1040.55
1041.04
1039.92
1040.43
1039.45
1039.96
1038.9
1039.43
1041.15
1041.43
1040.12
1040.4
1039.42
1039.76
1038.96
1039.38
1038.61
1039.13
1039.57
1039.65
1039.19
1039.16
1040.51
1040.56
1040.05
1039.95
1038.63
1038.74
1038.96
1039.16
1038.9
1038.78
1038.61
1038.46
1039.69
1039.51
1039.37
1039.16
1038.37
1038.4
1038.11
1038.12
1038.28
1038.54
1038.1
1038.52
1038.58
1038.92
1038.33
1038.82
1038.03
1038.22
1037.9
1038.26
1037.83
1037.99
1037.72
1038.04
1041.34
1042.2
1043.02
1041.02
1042
1042.82
1041.23
1042.1
1042.93
1040.89
1041.87
1042.72
1041.06
1041.92
1042.77
1040.66
1041.69
1042.6
1042.78
1043.61
1044.5
1041.72
1042.58
1043.49
1041.12
1042.02
1042.95
1040.7
1041.59
1042.5
1040.42
1041.5
1042.49
1041.95
1042.84
1043.86
1040.94
1041.86
1042.88
1040.39
1041.36
1042.41
1040.13
1041.15
1042.21
1040.17
1041.31
1042.4
1038.27
1038.61
1039.57
1041.37
1038.43
1038.8
1039.79
1041.6
1038.2
1038.56
1039.52
1041.33
1038.31
1038.7
1039.7
1041.52
1038.11
1038.49
1039.41
1041.17
1038.07
1038.5
1039.48
1041.28
1038.11
1038.58
1039.64
1041.48
1038
1038.54
1039.64
1041.49
1037.9
1038.35
1039.31
1041.09
1037.93
1038.42
1039.3
1040.9
1038.05
1038.46
1039.32
1040.97
1038.1
1038.54
1039.35
1040.86
1037.78
1038.28
1039.32
1041.16
1037.78
1038.32
1039.25
1040.88
1037.65
1038.2
1039.28
1041.11
1037.65
1038.23
1039.19
1040.82
1038.3
1038.6
1039.47
1041.16
1038.52
1038.77
1039.51
1040.99
1038.28
1038.59
1039.45
1041.13
1038.52
1038.78
1039.51
1040.97
1038.25
1038.58
1039.41
1041.04
1038.47
1038.76
1039.5
1040.94
1038.25
1038.61
1039.39
1040.93
1038.43
1038.75
1039.48
1040.88
1038.27
1038.66
1039.41
1040.81
1038.87
1039.08
1039.74
1040.79
1039.27
1039.44
1040.12
1041.1
1038.83
1039.05
1039.72
1040.77
1039.22
1039.42
1040.11
1041.09
1038.75
1039.01
1039.7
1040.75
1039.14
1039.38
1040.09
1041.08
1038.64
1038.95
1039.65
1040.71
1039.04
1039.33
1040.06
1041.05
1038.49
1038.87
1039.6
1040.67
1038.91
1039.27
1040.02
1041.03
1038.21
1038.71
1039.52
1040.63
1038.59
1039.08
1039.9
1040.95
1038.35
1038.79
1039.56
1040.65
1038.75
1039.17
1039.96
1040.99
1038.09
1038.64
1039.48
1040.61
1038.44
1038.99
1039.85
1040.91
1037.97
1038.56
1039.43
1040.57
1038.3
1038.91
1039.8
1040.86
1044.12
1046.36
1048.27
1049.83
1051.04
1044.26
1046.47
1048.38
1049.94
1051.14
1044.11
1046.35
1048.26
1049.82
1051.03
1044.24
1046.45
1048.36
1049.92
1051.13
1044.08
1046.33
1048.25
1049.82
1051.03
1044.14
1046.37
1048.28
1049.85
1051.06
1044.19
1046.43
1048.34
1049.91
1051.12
1044.16
1046.4
1048.33
1049.89
1051.11
1044.06
1046.32
1048.24
1049.81
1051.02
1044.17
1046.49
1048.42
1049.98
1051.2
1044.08
1046.36
1048.29
1049.85
1051.06
1044.21
1046.53
1048.45
1050.02
1051.23
1044.06
1046.32
1048.25
1049.82
1051.03
1044.19
1046.51
1048.44
1050.01
1051.22
1044.02
1046.3
1048.23
1049.8
1051.02
1044.18
1046.51
1048.45
1050.02
1051.23
1044.14
1046.41
1048.32
1049.88
1051.09
1044.3
1046.61
1048.53
1050.09
1051.29
1044.14
1046.41
1048.33
1049.89
1051.1
1044.3
1046.61
1048.53
1050.09
1051.3
1044.14
1046.43
1048.35
1049.91
1051.12
1044.3
1046.62
1048.54
1050.1
1051.31
1044.19
1046.5
1048.43
1049.99
1051.2
1044.33
1046.65
1048.58
1050.14
1051.35
1044.29
1046.61
1048.53
1050.1
1051.31
1054.65
1055.04
1054.49
1054.88
1054.18
1054.62
1053.8
1054.31
1053.42
1054
1052.84
1053.51
1053.14
1053.8
1052.53
1053.19
1052.22
1052.81
1058.93
1063.63
1067.61
1070.71
1072.84
1058.86
1063.6
1067.61
1070.74
1072.9
1058.86
1063.59
1067.58
1070.69
1072.82
1058.79
1063.57
1067.59
1070.73
1072.89
1058.71
1063.51
1067.53
1070.65
1072.79
1058.65
1063.49
1067.54
1070.69
1072.86
1058.5
1063.39
1067.44
1070.59
1072.73
1058.46
1063.38
1067.46
1070.64
1072.81
1058.27
1063.24
1067.34
1070.51
1072.66
1058.26
1063.25
1067.37
1070.57
1072.75
1057.76
1062.86
1067.05
1070.28
1072.46
1057.81
1062.91
1067.11
1070.36
1072.56
1058.02
1063.05
1067.2
1070.4
1072.57
1058.05
1063.09
1067.26
1070.48
1072.67
1057.51
1062.66
1066.89
1070.15
1072.34
1057.54
1062.7
1066.94
1070.22
1072.43
1057.24
1062.45
1066.73
1070.01
1072.22
1057.24
1062.46
1066.76
1070.06
1072.29
1039.74
1040.34
1040.82
1040.14
1040.94
1040.85
1040.83
1040.72
1041.04
1040.88
1041.84
1041.64
1042.24
1042.02
1041.64
1041.46
1041.4
1041.28
1041.34
1041.25
1040.15
1039.96
1041.51
1042.16
1042.39
1042.44
1041.84
1041.74
1042.52
1041.55
1043.18
1044.19
1041.67
1041.99
1042.77
1041.86
1042.22
1042.26
1041.07
1040.95
1041.34
1041.17
1041
1040.82
1040.97
1041.22
1042.09
1041.91
1041.62
1041.45
1040.41
1040.14
1040.54
1040.31
1040.55
1040.65
1041.04
1041.59
1041.04
1039.09
1038.54
1038.3
1038.31
1038.58
1039.18
1038.73
1038.52
1038.58
1038.94
1041
1040.76
1040.74
1040.94
1041.37
1041.67
1041.45
1041.44
1041.66
1042.1
1041.89
1041.66
1041.65
1041.85
1042.29
1041.95
1041.73
1041.72
1041.94
1042.38
1041.34
1041.1
1041.08
1041.29
1041.73
1040.58
1039.87
1039.49
1039.4
1039.59
1041.29
1040.52
1040.12
1040.03
1040.26
1040.74
1040.21
1039.92
1039.92
1040.25
1042.04
1041.31
1040.94
1040.88
1041.16
1043.08
1042.33
1041.95
1041.89
1042.18
1041.04
1040.66
1040.51
1040.61
1040.99
1041.25
1040.78
1040.53
1040.57
1040.92
1042.05
1041.59
1041.36
1041.41
1041.76
1041.27
1040.94
1040.83
1040.96
1041.36
1041.6
1041.23
1041.08
1041.18
1041.56
1041.69
1041.37
1041.26
1041.4
1041.8
1040.02
1039.41
1039.1
1039.06
1039.29
1040.24
1039.8
1039.59
1039.64
1039.99
1040.74
1040.4
1040.27
1040.4
1040.79
1040.6
1040.29
1040.19
1040.34
1040.75
1040.38
1040.02
1039.88
1039.99
1040.38
1040.23
1039.91
1039.81
1039.95
1040.35
1040.43
1040.16
1040.1
1040.27
1040.69
1040.68
1040.41
1040.35
1040.53
1040.95
1041.56
1041.29
1041.23
1041.41
1041.83
1041.39
1041.15
1041.11
1041.3
1041.73
1041.07
1040.77
1040.68
1040.84
1041.25
1040.91
1040.63
1040.57
1040.74
1041.16
1039.39
1038.83
1038.56
1038.56
1038.81
1039.42
1038.99
1038.8
1038.87
1039.24
1039.7
1039.21
1038.95
1038.97
1039.26
1039.67
1039.31
1039.16
1039.26
1039.65
1039.95
1039.61
1039.49
1039.62
1040.02
1039.96
1039.53
1039.33
1039.39
1039.75
1040.49
1040.21
1040.14
1040.31
1040.73
1041.08
1040.83
1040.79
1040.98
1041.41
1040.47
1040.17
1040.09
1040.24
1040.65
1040.23
1040.53
1040.25
1040.59
1039.44
1039.79
1039.43
1039.74
1040.28
1040.32
1040.61
1040.54
1039.45
1039.47
1039.78
1039.68
1041.05
1041.85
1041.32
1042.09
1041.05
1041.78
1041.37
1042.09
1041.39
1041.1
1041.22
1041.04
1041.67
1041.96
1041.01
1041.35
1040.86
1041.24
1040.2
1040.57
1039.99
1040.35
1041.78
1042.15
1041.55
1041.98
1042.36
1042.81
1042.58
1043.21
1042.78
1043.38
1042.53
1043.28
1042.8
1043.46
1042.41
1043.43
1042.58
1043.49
1042.96
1043.88
1043.49
1044.43
1040.57
1040.77
1040.72
1040.96
1039.53
1039.59
1039.7
1039.75
1041.7
1042.3
1041.57
1042.1
1040.98
1041.18
1041.3
1041.46
1039.94
1039.96
1040.24
1040.21
1041.96
1042.53
1042.32
1042.84
1042.72
1043.85
1043.68
1044.98
1042.63
1043.85
1043.52
1044.88
1042.96
1044.04
1043.91
1045.17
1043.34
1044.41
1044.24
1045.47
1042.65
1043.04
1043.35
1043.96
1042.6
1042.91
1043.46
1044.05
1042.49
1042.66
1043.65
1044.14
1040.53
1039.46
1041.58
1042.7
1044.11
1039.42
1040.44
1041.49
1042.67
1044.36
1039.51
1040.66
1041.98
1043.42
1044.9
1043.66
1043.93
1045.55
1046.1
1043.37
1043.64
1045.44
1045.98
1042.94
1043.16
1045.3
1045.84
1039.44
1039.58
1040.53
1040.7
1041.66
1041.83
1043.03
1043.25
1045.47
1046.06
1039.51
1039.64
1040.77
1041.13
1042.21
1042.67
1043.88
1044.43
1046.13
1046.84
1041.06
1041.69
1041.22
1041.86
1039.62
1039.65
1039.75
1039.75
1042.85
1043.78
1042.65
1043.53
1041.36
1042.1
1041.64
1042.42
1039.92
1039.95
1040.16
1040.22
1042.99
1044.04
1043.3
1044.42
1044.79
1046.01
1047.27
1048.83
1044.48
1045.66
1046.83
1048.28
1045.03
1046.3
1047.64
1049.25
1045.25
1046.6
1047.83
1049.41
1044
1044.22
1045.7
1045.7
1043.73
1043.97
1045.62
1045.6
1043.31
1043.67
1045.55
1045.54
1039.86
1040.38
1041.01
1041.49
1042.11
1042.52
1043.47
1043.85
1045.67
1045.63
1039.92
1040.47
1041.61
1042.11
1043.09
1043.46
1044.58
1044.72
1046.1
1045.94
1038.13
1038.1
1038.44
1038.31
1038.72
1038.69
1039.05
1038.91
1037.71
1037.4
1038.01
1037.69
1037.72
1037.43
1038.04
1037.74
1037.99
1037.71
1037.95
1037.74
1037.5
1037.76
1038.6
1038.96
1039.2
1039.55
1038.37
1038.78
1038.26
1038.61
1038.13
1038.5
1037.21
1037.07
1037.49
1037.33
1037.22
1037.04
1037.51
1037.31
1037.25
1037.02
1037.47
1037.2
1037.8
1037.5
1038.13
1037.76
1037.99
1037.96
1038.14
1038.07
1038.66
1038.64
1038.82
1038.77
1037.68
1037.58
1037.55
1037.5
1038.36
1038.22
1038.62
1038.42
1039.05
1038.96
1039.33
1039.18
1037.89
1037.71
1038.13
1037.89
1037.35
1037.09
1037.29
1037.15
1037.23
1037.02
1037.23
1037.1
1037.54
1037.24
1037.41
1037.23
1037.77
1037.42
1037.56
1037.35
1037.09
1037.14
1036.97
1037.05
1037.12
1037.17
1036.97
1037.06
1037.18
1037.23
1036.99
1037.07
1037.94
1038.59
1037.5
1037.21
1037.03
1038.6
1037.97
1037.54
1037.25
1037.09
1038.57
1037.92
1037.48
1037.22
1037.11
1037.34
1037.7
1037.3
1037.68
1037.35
1037.68
1037.28
1037.65
1037.36
1037.65
1037.25
1037.59
1038.6
1038.73
1037.97
1038.14
1037.58
1037.79
1037.33
1037.58
1037.23
1037.53
1038.53
1038.57
1037.89
1037.96
1037.48
1037.62
1037.27
1037.49
1037.23
1037.53
1037.86
1037.81
1037.98
1037.86
1038.53
1038.42
1038.67
1038.48
1037.56
1037.58
1037.46
1037.53
1038.17
1038
1038.37
1038.21
1038.88
1038.64
1039.1
1038.87
1037.72
1037.7
1037.9
1037.89
1037.34
1037.5
1037.33
1037.62
1037.27
1037.47
1037.26
1037.58
1037.47
1037.6
1037.43
1037.73
1037.63
1037.78
1037.56
1037.86
1038.13
1038.53
1038.24
1038.72
1038.08
1038.51
1038.2
1038.7
1038.04
1038.51
1038.13
1038.71
1039.01
1039.53
1038.45
1038.98
1038.13
1038.67
1037.95
1038.51
1038.08
1038.76
1038.79
1039.39
1038.23
1038.85
1037.96
1038.62
1037.92
1038.61
1038.13
1038.91
1037.26
1037.93
1039.1
1041.05
1037.5
1038.17
1039.36
1041.31
1037.24
1037.91
1039.08
1041.04
1037.47
1038.14
1039.32
1041.26
1037.23
1037.89
1039
1040.9
1037.37
1038.02
1039.16
1041.06
1037.63
1038.26
1039.42
1041.33
1037.83
1038.42
1039.56
1041.44
1037.29
1037.94
1039.02
1040.89
1037.41
1038.06
1039.04
1040.71
1037.25
1037.92
1038.95
1040.72
1037.39
1038.05
1039.01
1040.62
1037.39
1038.01
1039.13
1041.03
1037.46
1038.1
1039.09
1040.76
1037.52
1038.11
1039.21
1041.07
1037.54
1038.15
1039.13
1040.77
1037.18
1037.85
1038.96
1040.81
1037.29
1037.96
1038.96
1040.6
1037.19
1037.86
1038.95
1040.8
1037.31
1037.98
1038.97
1040.6
1037.23
1037.9
1038.95
1040.74
1037.34
1038.01
1038.99
1040.6
1037.3
1037.97
1038.96
1040.64
1037.38
1038.05
1039.01
1040.56
1037.4
1038.08
1039.01
1040.54
1037.55
1038.22
1039.16
1040.35
1037.9
1038.56
1039.52
1040.63
1037.55
1038.22
1039.15
1040.34
1037.9
1038.56
1039.52
1040.63
1037.56
1038.22
1039.16
1040.35
1037.9
1038.57
1039.53
1040.64
1037.56
1038.24
1039.17
1040.35
1037.91
1038.59
1039.54
1040.65
1037.58
1038.26
1039.17
1040.35
1037.92
1038.61
1039.57
1040.67
1037.68
1038.35
1039.26
1040.42
1037.99
1038.68
1039.62
1040.72
1037.62
1038.3
1039.21
1040.38
1037.94
1038.64
1039.59
1040.68
1037.76
1038.42
1039.32
1040.48
1038.08
1038.75
1039.68
1040.77
1037.86
1038.48
1039.38
1040.53
1038.18
1038.82
1039.74
1040.82
1043.94
1046.24
1048.19
1049.78
1051
1044.08
1046.36
1048.31
1049.89
1051.11
1043.94
1046.24
1048.19
1049.78
1051
1044.08
1046.36
1048.3
1049.88
1051.1
1043.93
1046.24
1048.19
1049.78
1051
1044.01
1046.29
1048.23
1049.81
1051.03
1044.1
1046.37
1048.31
1049.89
1051.1
1044.13
1046.38
1048.31
1049.89
1051.1
1043.94
1046.25
1048.2
1049.78
1051
1044.07
1046.43
1048.38
1049.96
1051.17
1043.95
1046.28
1048.23
1049.82
1051.03
1044.08
1046.45
1048.41
1049.99
1051.21
1043.98
1046.27
1048.22
1049.79
1051.01
1044.11
1046.46
1048.41
1049.99
1051.2
1043.99
1046.28
1048.22
1049.8
1051.01
1044.15
1046.49
1048.44
1050.01
1051.22
1043.94
1046.29
1048.25
1049.83
1051.05
1044.1
1046.49
1048.45
1050.03
1051.25
1043.95
1046.3
1048.26
1049.84
1051.06
1044.11
1046.49
1048.45
1050.04
1051.26
1043.97
1046.33
1048.29
1049.87
1051.09
1044.13
1046.51
1048.47
1050.06
1051.27
1044.04
1046.41
1048.37
1049.95
1051.17
1044.18
1046.56
1048.52
1050.1
1051.32
1044.15
1046.53
1048.48
1050.06
1051.28
1049.58
1050.02
1049.64
1050.09
1049.78
1050.24
1050
1050.45
1050.35
1050.74
1051.26
1051.77
1050.85
1051.3
1051.6
1052.16
1051.91
1052.48
1055.22
1060.96
1065.6
1069.1
1071.43
1055.09
1060.89
1065.59
1069.12
1071.48
1055.27
1061
1065.63
1069.13
1071.44
1055.16
1060.95
1065.62
1069.16
1071.51
1055.38
1061.08
1065.68
1069.17
1071.48
1055.27
1061.02
1065.67
1069.2
1071.54
1055.56
1061.2
1065.77
1069.24
1071.54
1055.43
1061.13
1065.75
1069.26
1071.6
1055.81
1061.37
1065.89
1069.34
1071.63
1055.64
1061.27
1065.85
1069.34
1071.67
1056.41
1061.79
1066.21
1069.58
1071.84
1056.3
1061.72
1066.18
1069.59
1071.88
1056.1
1061.57
1066.04
1069.45
1071.73
1055.94
1061.47
1066
1069.45
1071.76
1056.69
1062.01
1066.38
1069.72
1071.96
1056.63
1061.97
1066.37
1069.75
1072.01
1056.97
1062.23
1066.55
1069.87
1072.09
1056.94
1062.23
1066.57
1069.9
1072.15
1039.29
1039.85
1039.47
1038.88
1038.14
1038.45
1038.13
1038.48
1038.72
1039.09
1038.72
1039.03
1044.56
1044.47
1044.24
1043.86
1043.36
1042.75
1044.61
1044.52
1044.29
1043.94
1043.48
1042.94
1044.81
1045.18
1044.7
1045.06
1044.44
1044.76
1044.02
1044.27
1043.45
1043.64
1042.79
1043
1042.1
1041.49
1040.97
1040.55
1040.24
1040.01
1042.37
1041.81
1041.32
1040.9
1040.58
1040.36
1044.11
1043.93
1043.96
1044.2
1044.66
1044.02
1043.83
1043.86
1044.11
1044.56
1043.78
1043.59
1043.62
1043.86
1044.32
1043.4
1043.21
1043.24
1043.48
1043.93
1042.89
1042.7
1042.71
1042.95
1043.4
1042.28
1042.07
1042.08
1042.31
1042.76
1044.15
1043.97
1044
1044.24
1044.7
1044.06
1043.88
1043.91
1044.15
1044.6
1043.84
1043.65
1043.68
1043.92
1044.37
1043.48
1043.29
1043.32
1043.55
1044.01
1043.02
1042.82
1042.84
1043.07
1043.52
1042.47
1042.26
1042.27
1042.49
1042.94
1044.36
1044.18
1044.21
1044.45
1044.91
1044.73
1044.55
1044.58
1044.82
1045.28
1044.25
1044.07
1044.1
1044.34
1044.8
1044.61
1044.43
1044.46
1044.7
1045.15
1043.98
1043.8
1043.83
1044.07
1044.52
1044.3
1044.12
1044.15
1044.39
1044.84
1043.56
1043.37
1043.39
1043.63
1044.08
1043.81
1043.62
1043.65
1043.88
1044.34
1042.98
1042.79
1042.8
1043.04
1043.49
1043.18
1042.98
1043
1043.23
1043.68
1042.31
1042.11
1042.12
1042.34
1042.79
1042.52
1042.32
1042.32
1042.55
1042.99
1041.61
1041.4
1041.39
1041.6
1042.05
1040.98
1040.74
1040.72
1040.92
1041.35
1040.44
1040.17
1040.11
1040.29
1040.71
1039.98
1039.67
1039.58
1039.72
1040.14
1039.62
1039.27
1039.14
1039.27
1039.66
1039.36
1038.99
1038.84
1038.95
1039.34
1041.88
1041.66
1041.66
1041.87
1042.31
1041.31
1041.07
1041.05
1041.25
1041.69
1040.79
1040.53
1040.49
1040.67
1041.1
1040.35
1040.07
1040
1040.16
1040.58
1040.01
1039.7
1039.61
1039.76
1040.17
1039.77
1039.45
1039.34
1039.48
1039.89
1044.51
1044.32
1043.98
1043.51
1042.9
1042.19
1044.56
1044.37
1044.05
1043.6
1043.04
1042.41
1044.76
1045.13
1044.55
1044.89
1044.18
1044.48
1043.65
1043.88
1042.97
1043.14
1042.19
1042.36
1041.45
1040.77
1040.24
1039.91
1039.79
1039.84
1041.77
1041.18
1040.7
1040.38
1040.23
1040.23
1044.06
1043.88
1043.91
1044.15
1044.61
1043.86
1043.68
1043.72
1043.96
1044.41
1043.53
1043.35
1043.37
1043.62
1044.07
1043.05
1042.86
1042.89
1043.13
1043.59
1042.44
1042.25
1042.27
1042.51
1042.96
1041.72
1041.52
1041.54
1041.77
1042.22
1044.1
1043.92
1043.95
1044.19
1044.65
1043.91
1043.73
1043.76
1044
1044.46
1043.59
1043.4
1043.43
1043.67
1044.13
1043.14
1042.95
1042.98
1043.22
1043.67
1042.58
1042.38
1042.41
1042.64
1043.1
1041.94
1041.74
1041.76
1041.99
1042.44
1044.3
1044.13
1044.16
1044.4
1044.86
1044.67
1044.49
1044.53
1044.77
1045.22
1044.09
1043.91
1043.95
1044.19
1044.64
1044.44
1044.26
1044.29
1044.54
1044.99
1043.72
1043.54
1043.57
1043.81
1044.27
1044.03
1043.85
1043.88
1044.12
1044.57
1043.19
1043
1043.03
1043.27
1043.73
1043.42
1043.24
1043.26
1043.5
1043.96
1042.5
1042.32
1042.34
1042.58
1043.03
1042.68
1042.49
1042.51
1042.74
1043.2
1041.72
1041.52
1041.54
1041.77
1042.22
1041.88
1041.69
1041.7
1041.93
1042.39
1040.96
1040.75
1040.76
1040.98
1041.43
1040.27
1040.05
1040.03
1040.25
1040.69
1039.72
1039.47
1039.43
1039.63
1040.06
1039.35
1039.06
1038.99
1039.15
1039.57
1039.18
1038.85
1038.74
1038.88
1039.28
1039.2
1038.84
1038.7
1038.81
1039.21
1041.29
1041.08
1041.08
1041.3
1041.75
1040.68
1040.46
1040.44
1040.66
1041.1
1040.19
1039.94
1039.91
1040.1
1040.54
1039.84
1039.57
1039.51
1039.69
1040.11
1039.66
1039.36
1039.28
1039.44
1039.86
1039.64
1039.33
1039.23
1039.37
1039.78
1039.86
1039.73
1040.68
1041.44
1041.5
1041.67
1040.97
1039.41
1039.63
1039.45
1040.13
1039.96
1039.88
1040.33
1040.43
1040.71
1039.35
1039.34
1039.85
1039.9
1039.58
1039.66
1040.07
1040.17
1040.86
1040.85
1040.29
1040.28
1039.59
1039.53
1039.3
1039.46
1039.53
1039.33
1040.01
1040.62
1039.88
1038.82
1038.3
1038.08
1038.1
1038.39
1038.97
1038.53
1038.34
1038.4
1038.77
1040.19
1039.96
1039.96
1040.17
1040.62
1040.96
1040.76
1040.76
1040.99
1041.44
1041.01
1040.8
1040.8
1041.03
1041.48
1041.19
1040.99
1041
1041.22
1041.67
1040.48
1040.27
1040.26
1040.48
1040.93
1038.5
1038.02
1037.82
1037.86
1038.15
1038.75
1038.29
1038.11
1038.18
1038.49
1038.78
1038.41
1038.26
1038.37
1038.76
1039.34
1038.93
1038.79
1038.89
1039.26
1039.4
1039.12
1039.05
1039.22
1039.64
1039.27
1038.95
1038.84
1038.98
1039.39
1039.79
1039.53
1039.49
1039.68
1040.11
1039.89
1039.62
1039.56
1039.74
1040.17
1040.19
1039.94
1039.9
1040.09
1040.53
1038.45
1037.98
1037.79
1037.84
1038.14
1038.71
1038.36
1038.24
1038.37
1038.77
1039.31
1039.04
1038.98
1039.16
1039.58
1039.36
1039.1
1039.06
1039.24
1039.68
1039.02
1038.72
1038.65
1038.81
1039.23
1039.12
1038.84
1038.78
1038.95
1039.38
1039.54
1039.29
1039.26
1039.46
1039.89
1039.65
1039.41
1039.39
1039.59
1040.03
1040.36
1040.13
1040.11
1040.31
1040.76
1040.36
1040.13
1040.12
1040.34
1040.79
1039.77
1039.52
1039.49
1039.68
1040.12
1039.77
1039.53
1039.5
1039.7
1040.14
1038.62
1038.12
1037.92
1037.96
1038.25
1038.84
1038.44
1038.28
1038.38
1038.76
1038.54
1038.12
1037.95
1038.02
1038.36
1038.85
1038.52
1038.41
1038.55
1038.95
1038.96
1038.66
1038.58
1038.74
1039.16
1038.69
1038.34
1038.21
1038.33
1038.73
1039.49
1039.24
1039.21
1039.4
1039.84
1040.12
1039.89
1039.88
1040.09
1040.54
1039.35
1039.09
1039.05
1039.23
1039.67
1040.11
1039.69
1039.53
1039.61
1039.9
1040.47
1040.13
1040.16
1039.33
1039.31
1040.2
1040.26
1039.35
1039.38
1040.99
1041.88
1040.99
1041.8
1041.07
1041.03
1041.65
1040.11
1040.15
1039.3
1039.28
1040.19
1040.25
1039.32
1039.37
1041.04
1041.99
1041.04
1041.88
1041.12
1041.05
1041.72
1040.12
1040.17
1039.29
1039.27
1040.21
1040.27
1039.33
1039.37
1041.09
1042.23
1041.09
1042.09
1041.16
1041.09
1041.9
1040.28
1040.32
1039.43
1039.4
1040.37
1040.44
1039.46
1039.52
1041.31
1042.52
1041.3
1042.37
1041.36
1041.27
1042.13
1040.56
1040.6
1039.71
1039.68
1040.64
1040.73
1039.74
1039.79
1041.59
1042.72
1041.58
1042.6
1041.62
1041.55
1042.37
1041.05
1041.08
1040.21
1040.19
1041.11
1041.19
1040.24
1040.28
1042.03
1043.07
1042
1042.95
1042.04
1041.96
1042.72
1038.02
1038.02
1038.6
1038.6
1038.03
1038.04
1038.61
1038.63
1037.6
1037.27
1037.62
1037.32
1037.62
1037.67
1037.42
1037.99
1037.99
1038.57
1038.56
1038.01
1038.03
1038.59
1038.61
1037.54
1037.27
1037.57
1037.33
1037.6
1037.67
1037.43
1037.97
1037.98
1038.56
1038.55
1038.01
1038.04
1038.59
1038.62
1037.57
1037.38
1037.61
1037.44
1037.66
1037.73
1037.53
1038.11
1038.12
1038.7
1038.68
1038.17
1038.21
1038.73
1038.76
1037.75
1037.64
1037.79
1037.69
1037.85
1037.94
1037.78
1038.4
1038.42
1038.98
1038.96
1038.47
1038.53
1039.01
1039.04
1038.07
1038.01
1038.12
1038.05
1038.19
1038.28
1038.13
1038.93
1038.95
1039.5
1039.48
1039
1039.05
1039.53
1039.56
1038.61
1038.5
1038.66
1038.54
1038.71
1038.79
1038.61
1044.72
1044.58
1044.3
1044.07
1043.69
1043.46
1042.83
1042.65
1042.98
1042.77
1043.66
1043.44
1044.14
1043.94
1044.53
1044.38
1043.52
1043.23
1043.13
1042.73
1042.48
1042.1
1042.12
1041.65
1045.25
1046.14
1045.1
1045.93
1044.87
1045.72
1044.62
1045.42
1044.03
1044.48
1043.61
1044.18
1045.21
1044.73
1042.64
1041.92
1042.25
1041.72
1041.69
1041.09
1041.23
1040.78
1043.53
1042.78
1043.1
1042.53
1044.24
1043.51
1047.16
1047.75
1046.74
1047.35
1046.73
1047.48
1046.23
1046.92
1046.13
1047.14
1045.38
1046.31
1044.8
1045.72
1044.15
1045.08
1043.32
1043.19
1042.69
1042.64
1041.94
1041.77
1041.45
1041.28
1043.89
1044.08
1044.63
1044.68
1042.17
1042.18
1041.69
1041.79
1041.01
1040.87
1040.59
1040.51
1043.29
1043.59
1042.75
1043.19
1045.06
1046.19
1045.52
1046.8
1045.87
1047.03
1046.14
1047.48
1044.4
1045.49
1045
1046.26
1043.82
1044.89
1044.6
1045.83
1048.59
1049.91
1048.8
1050.11
1048.19
1049.41
1048.58
1049.84
1047.53
1048.46
1048.23
1049.26
1044.21
1042.57
1045.69
1046.81
1048.01
1042.79
1044.52
1046.28
1047.48
1048.79
1042.39
1043.93
1045.43
1046.84
1048.21
1051.13
1051.71
1051.81
1052.33
1050.49
1051.16
1051.39
1051.94
1049.42
1050.17
1050.68
1051.34
1043.15
1043.74
1045.04
1045.85
1046.78
1047.63
1048.17
1049.01
1050.02
1050.87
1042.65
1043.13
1044.38
1045.23
1046
1046.98
1047.62
1048.68
1049.65
1050.78
1043.62
1044.58
1042.92
1043.78
1041.92
1042.18
1041.31
1041.44
1044.64
1045.79
1045.32
1046.53
1042.33
1043.19
1041.96
1042.78
1040.81
1040.93
1040.46
1040.54
1044.02
1045.19
1043.64
1044.78
1046.59
1047.99
1049.01
1050.72
1047.13
1048.6
1049.37
1051.05
1046.09
1047.45
1048.66
1050.35
1045.61
1046.98
1048.16
1049.76
1051.84
1052.06
1052.52
1051.97
1052.03
1052.44
1051.43
1051.71
1052.2
1051.67
1051.75
1052.2
1050.62
1051
1051.55
1051.22
1051.37
1051.87
1044.46
1045.29
1046.18
1046.71
1047.43
1048.21
1048.42
1049.03
1049.71
1049.65
1050.16
1050.81
1050.86
1051.09
1051.68
1043.79
1044.72
1045.72
1046.36
1047.33
1048.32
1048.12
1048.97
1049.85
1049.55
1050.16
1050.94
1050.85
1051.15
1051.84
1040.62
1040.32
1040.36
1039.98
1041.46
1041.09
1041.16
1040.7
1040.42
1039.77
1040.35
1039.75
1040.24
1039.66
1040.11
1039.57
1039.7
1039.95
1039.54
1039.84
1039.56
1039.35
1039.68
1039.33
1040.33
1039.94
1039.53
1039.21
1039.3
1038.99
1039.23
1038.92
1039.12
1038.54
1039.23
1038.68
1039.04
1038.44
1039.07
1038.51
1038.98
1038.32
1038.84
1038.24
1038.74
1038.2
1038.47
1038.02
1039.91
1039.64
1039.57
1039.27
1040.79
1040.56
1040.39
1040.14
1039
1038.64
1039.29
1038.97
1039.24
1038.95
1038.91
1038.66
1040.01
1039.77
1039.64
1039.45
1038.71
1038.36
1038.41
1038.1
1038.51
1037.98
1038.22
1037.89
1038.75
1038.19
1038.5
1038.13
1038.28
1037.81
1037.97
1037.69
1038.02
1037.61
1037.75
1037.51
1039.12
1039.37
1038.59
1038.86
1039.12
1039.39
1038.55
1038.84
1039.12
1039.36
1038.5
1038.75
1040.15
1041.19
1039.49
1038.98
1038.43
1041.38
1040.35
1039.74
1039.23
1038.65
1041
1039.99
1039.27
1038.78
1038.37
1039.83
1040.47
1039.33
1039.95
1039.8
1040.41
1039.26
1039.85
1039.72
1040.3
1039.12
1039.68
1041.64
1042.12
1040.55
1041.04
1039.92
1040.43
1039.45
1039.96
1038.9
1039.43
1041.16
1041.43
1040.12
1040.4
1039.42
1039.76
1038.96
1039.38
1038.61
1039.13
1039.57
1039.65
1039.19
1039.16
1040.51
1040.56
1040.05
1039.96
1038.63
1038.74
1038.96
1039.16
1038.9
1038.78
1038.61
1038.46
1039.69
1039.51
1039.37
1039.16
1038.37
1038.4
1038.12
1038.12
1038.28
1038.54
1038.1
1038.52
1038.58
1038.92
1038.33
1038.82
1038.03
1038.22
1037.9
1038.26
1037.83
1037.99
1037.72
1038.04
1041.34
1042.21
1043.02
1041.02
1042
1042.82
1041.23
1042.1
1042.93
1040.89
1041.87
1042.72
1041.06
1041.92
1042.77
1040.66
1041.69
1042.6
1042.78
1043.61
1044.5
1041.72
1042.58
1043.49
1041.12
1042.02
1042.95
1040.7
1041.59
1042.5
1040.42
1041.5
1042.49
1041.95
1042.84
1043.86
1040.94
1041.86
1042.88
1040.39
1041.36
1042.41
1040.13
1041.15
1042.21
1040.17
1041.31
1042.4
1038.28
1038.62
1039.58
1041.37
1038.44
1038.81
1039.8
1041.61
1038.2
1038.56
1039.52
1041.33
1038.31
1038.7
1039.7
1041.52
1038.11
1038.49
1039.41
1041.17
1038.07
1038.5
1039.48
1041.28
1038.11
1038.58
1039.64
1041.48
1038
1038.54
1039.64
1041.49
1037.9
1038.35
1039.31
1041.09
1037.93
1038.42
1039.3
1040.9
1038.05
1038.46
1039.32
1040.97
1038.1
1038.54
1039.35
1040.86
1037.78
1038.28
1039.32
1041.16
1037.78
1038.32
1039.25
1040.88
1037.65
1038.2
1039.28
1041.11
1037.65
1038.23
1039.19
1040.82
1038.3
1038.6
1039.47
1041.16
1038.53
1038.77
1039.51
1040.99
1038.28
1038.59
1039.45
1041.13
1038.52
1038.78
1039.51
1040.97
1038.25
1038.59
1039.41
1041.04
1038.47
1038.76
1039.5
1040.94
1038.25
1038.61
1039.39
1040.93
1038.43
1038.75
1039.48
1040.88
1038.27
1038.66
1039.41
1040.81
1038.87
1039.08
1039.74
1040.79
1039.27
1039.44
1040.12
1041.1
1038.83
1039.06
1039.72
1040.77
1039.22
1039.42
1040.11
1041.09
1038.75
1039.01
1039.7
1040.75
1039.14
1039.38
1040.09
1041.08
1038.64
1038.95
1039.65
1040.71
1039.04
1039.33
1040.06
1041.05
1038.49
1038.87
1039.6
1040.67
1038.91
1039.27
1040.02
1041.03
1038.21
1038.71
1039.52
1040.63
1038.59
1039.08
1039.9
1040.95
1038.35
1038.79
1039.56
1040.65
1038.75
1039.17
1039.96
1040.99
1038.09
1038.64
1039.48
1040.61
1038.44
1038.99
1039.85
1040.91
1037.97
1038.56
1039.43
1040.57
1038.3
1038.91
1039.8
1040.86
1044.12
1046.36
1048.27
1049.83
1051.04
1044.27
1046.47
1048.38
1049.94
1051.15
1044.11
1046.35
1048.26
1049.82
1051.03
1044.24
1046.45
1048.36
1049.92
1051.13
1044.08
1046.33
1048.25
1049.82
1051.03
1044.14
1046.37
1048.28
1049.85
1051.06
1044.19
1046.43
1048.34
1049.91
1051.12
1044.16
1046.4
1048.32
1049.89
1051.11
1044.06
1046.32
1048.24
1049.81
1051.02
1044.17
1046.49
1048.42
1049.98
1051.19
1044.08
1046.36
1048.28
1049.85
1051.06
1044.21
1046.53
1048.45
1050.02
1051.23
1044.06
1046.32
1048.25
1049.82
1051.03
1044.19
1046.51
1048.44
1050.01
1051.22
1044.02
1046.3
1048.23
1049.8
1051.02
1044.18
1046.51
1048.45
1050.02
1051.23
1044.14
1046.41
1048.32
1049.88
1051.09
1044.3
1046.61
1048.52
1050.08
1051.29
1044.14
1046.41
1048.33
1049.89
1051.1
1044.3
1046.61
1048.53
1050.09
1051.3
1044.14
1046.43
1048.35
1049.91
1051.12
1044.3
1046.62
1048.54
1050.1
1051.31
1044.19
1046.5
1048.43
1049.99
1051.2
1044.33
1046.65
1048.58
1050.14
1051.35
1044.29
1046.61
1048.53
1050.1
1051.31
1054.66
1055.04
1054.49
1054.88
1054.18
1054.62
1053.8
1054.31
1053.42
1054.01
1052.84
1053.51
1053.14
1053.8
1052.54
1053.19
1052.22
1052.82
1058.93
1063.64
1067.61
1070.71
1072.84
1058.86
1063.6
1067.61
1070.74
1072.9
1058.86
1063.59
1067.58
1070.69
1072.82
1058.79
1063.57
1067.59
1070.73
1072.89
1058.71
1063.51
1067.53
1070.65
1072.79
1058.65
1063.49
1067.54
1070.69
1072.86
1058.5
1063.39
1067.44
1070.59
1072.73
1058.46
1063.38
1067.46
1070.64
1072.81
1058.27
1063.24
1067.34
1070.51
1072.66
1058.26
1063.25
1067.37
1070.57
1072.75
1057.76
1062.86
1067.05
1070.28
1072.46
1057.81
1062.91