/*--------------------------------*- C++ -*----------------------------------*\
| =========                 |                                                 |
| \\      /  F ield         | OpenFOAM: The Open Source CFD Toolbox           |
|  \\    /   O peration     | Version:  2306                                  |
|   \\  /    A nd           | Website:  www.openfoam.com                      |
|    \\/     M anipulation  |                                                 |
\*---------------------------------------------------------------------------*/
FoamFile
{
    version     2.0;
    format      ascii;
    arch        "LSB;label=32;scalar=64";
    class       volScalarField;
    location    "50";
    object      p;
}
// * * * * * * * * * * * * * * * * * * * * * * * * * * * * * * * * * * * * * //

dimensions      [0 2 -2 0 0 0 0];

internalField   nonuniform List<scalar> 
4480
(
0.0107547
0.0107392
0.0107349
0.0107346
0.0107365
0.0107411
0.0107487
0.0107593
0.010773
0.0107898
0.0108096
0.0108323
0.0108576
0.010885
0.0109139
0.0109432
0.0109718
0.0109984
0.0110217
0.0110408
0.0110542
0.01106
0.0110575
0.0110462
0.0110262
0.010998
0.0109625
0.0109209
0.0108745
0.0108248
0.0107731
0.0107207
0.0106687
0.0106182
0.0105699
0.0105242
0.0104817
0.0104426
0.010407
0.0103749
0.0103461
0.0103204
0.0102977
0.0102776
0.01026
0.0102445
0.0102311
0.0102193
0.010209
0.0102001
0.0101923
0.0101855
0.0101796
0.0101744
0.0101699
0.0101658
0.0101623
0.0101591
0.0101563
0.0101538
0.0101515
0.0101494
0.0101476
0.0101458
0.0101442
0.0101428
0.0101414
0.01014
0.0101388
0.0101376
0.0101364
0.0101353
0.0101342
0.0101331
0.010132
0.010131
0.0101299
0.0101288
0.0101277
0.0101265
0.0101253
0.0101241
0.0101229
0.0101216
0.0101203
0.010119
0.0101176
0.0101161
0.0101146
0.0101131
0.0101114
0.0101097
0.010108
0.0101061
0.0101042
0.0101021
0.0100999
0.0100977
0.0100952
0.0100926
0.0100898
0.0100869
0.0100836
0.0100801
0.0100763
0.0100721
0.0100675
0.0100624
0.0100569
0.0100511
0.0100456
0.0100417
0.0100417
0.010048
0.0100861
0.0102952
0.0108775
0.0105828
0.00449606
0.00386621
0.00396582
0.00475155
0.0110664
0.0112893
0.0106307
0.0103766
0.010308
0.0102777
0.0102582
0.0102459
0.0102376
0.0102314
0.0102261
0.0102214
0.0102171
0.010213
0.0102092
0.0102058
0.0102023
0.0101972
0.0107701
0.0107544
0.0107522
0.0107531
0.0107554
0.0107595
0.0107657
0.0107741
0.0107848
0.0107978
0.0108131
0.0108306
0.01085
0.0108711
0.0108931
0.0109154
0.0109369
0.0109566
0.0109736
0.0109872
0.0109961
0.0109988
0.0109945
0.0109828
0.0109639
0.010938
0.0109061
0.0108689
0.0108278
0.0107838
0.0107381
0.010692
0.0106462
0.0106017
0.0105591
0.0105188
0.0104811
0.0104464
0.0104147
0.010386
0.01036
0.0103368
0.0103159
0.0102974
0.0102809
0.0102662
0.0102531
0.0102414
0.0102311
0.0102218
0.0102135
0.0102061
0.0101994
0.0101933
0.0101879
0.0101829
0.0101784
0.0101742
0.0101704
0.0101669
0.0101637
0.0101607
0.0101579
0.0101554
0.0101529
0.0101507
0.0101486
0.0101466
0.0101447
0.0101429
0.0101412
0.0101395
0.0101379
0.0101364
0.0101349
0.0101334
0.0101319
0.0101305
0.0101291
0.0101276
0.0101262
0.0101247
0.0101232
0.0101217
0.0101201
0.0101185
0.0101169
0.0101152
0.0101134
0.0101116
0.0101097
0.0101077
0.0101056
0.0101034
0.010101
0.0100985
0.0100958
0.0100929
0.0100898
0.0100864
0.0100827
0.0100787
0.0100741
0.0100691
0.0100634
0.010057
0.0100497
0.0100412
0.0100313
0.0100197
0.0100058
0.00998869
0.00996597
0.00993107
0.00987378
0.00978478
0.00958052
0.00877256
0.00712034
0.00681795
0.00694056
0.00743081
0.00915606
0.00992914
0.0100926
0.010152
0.0101857
0.0102001
0.0102052
0.010207
0.0102075
0.0102073
0.0102066
0.0102055
0.010204
0.0102023
0.0102006
0.010199
0.010197
0.0101921
0.0107742
0.0107558
0.0107535
0.0107544
0.0107564
0.0107601
0.0107658
0.0107736
0.0107834
0.0107955
0.0108098
0.0108262
0.0108445
0.0108643
0.0108851
0.0109062
0.0109266
0.0109451
0.0109612
0.0109742
0.0109825
0.0109846
0.0109799
0.010968
0.0109489
0.0109231
0.0108912
0.0108544
0.0108136
0.0107702
0.0107253
0.01068
0.0106352
0.0105918
0.0105503
0.0105112
0.0104748
0.0104412
0.0104107
0.0103831
0.0103582
0.0103359
0.010316
0.0102983
0.0102824
0.0102683
0.0102557
0.0102445
0.0102345
0.0102254
0.0102173
0.01021
0.0102033
0.0101973
0.0101917
0.0101867
0.010182
0.0101777
0.0101738
0.0101701
0.0101667
0.0101635
0.0101605
0.0101578
0.0101552
0.0101528
0.0101505
0.0101483
0.0101463
0.0101443
0.0101425
0.0101407
0.010139
0.0101373
0.0101357
0.0101341
0.0101326
0.010131
0.0101295
0.010128
0.0101265
0.0101249
0.0101234
0.0101218
0.0101202
0.0101185
0.0101168
0.010115
0.0101132
0.0101113
0.0101094
0.0101073
0.0101051
0.0101028
0.0101003
0.0100977
0.0100949
0.0100919
0.0100886
0.0100851
0.0100812
0.0100769
0.0100721
0.0100667
0.0100606
0.0100537
0.0100457
0.0100363
0.0100252
0.0100116
0.00999475
0.00997278
0.00994253
0.00989757
0.00982591
0.00970409
0.00947235
0.00900424
0.00836735
0.00818552
0.00827994
0.00860201
0.00929258
0.00976261
0.00998031
0.010085
0.0101394
0.0101679
0.0101832
0.0101917
0.0101964
0.0101989
0.0102001
0.0102002
0.0101998
0.0101989
0.0101977
0.0101965
0.0101948
0.0101888
0.010774
0.0107537
0.010751
0.0107516
0.0107533
0.0107567
0.0107619
0.0107692
0.0107785
0.01079
0.0108037
0.0108195
0.0108373
0.0108567
0.0108772
0.0108981
0.0109182
0.0109364
0.0109525
0.0109655
0.0109735
0.0109753
0.0109701
0.0109575
0.0109377
0.0109111
0.0108785
0.010841
0.0107997
0.0107559
0.0107108
0.0106656
0.0106211
0.0105782
0.0105375
0.0104993
0.0104639
0.0104315
0.0104021
0.0103756
0.0103518
0.0103306
0.0103117
0.0102949
0.01028
0.0102666
0.0102548
0.0102442
0.0102346
0.0102261
0.0102183
0.0102113
0.0102049
0.010199
0.0101936
0.0101886
0.010184
0.0101797
0.0101757
0.010172
0.0101685
0.0101653
0.0101622
0.0101594
0.0101567
0.0101541
0.0101518
0.0101495
0.0101474
0.0101453
0.0101434
0.0101415
0.0101397
0.010138
0.0101363
0.0101347
0.010133
0.0101315
0.0101299
0.0101283
0.0101267
0.0101252
0.0101236
0.0101219
0.0101203
0.0101186
0.0101169
0.0101151
0.0101132
0.0101113
0.0101093
0.0101071
0.0101049
0.0101026
0.0101001
0.0100974
0.0100946
0.0100915
0.0100882
0.0100846
0.0100806
0.0100762
0.0100713
0.0100658
0.0100596
0.0100525
0.0100443
0.0100346
0.010023
0.0100089
0.0099911
0.00996807
0.00993699
0.00989326
0.0098294
0.00973299
0.00958047
0.00933622
0.0090393
0.0089459
0.00901869
0.00922083
0.0095656
0.0098258
0.00997782
0.0100662
0.010119
0.0101507
0.0101699
0.0101816
0.0101887
0.010193
0.0101954
0.0101965
0.0101967
0.0101963
0.0101955
0.0101945
0.0101929
0.0101861
0.0107713
0.0107496
0.0107466
0.010747
0.0107484
0.0107513
0.0107561
0.0107628
0.0107715
0.0107824
0.0107954
0.0108107
0.010828
0.010847
0.0108671
0.0108877
0.0109076
0.0109256
0.0109416
0.0109545
0.0109621
0.0109632
0.0109572
0.0109436
0.0109226
0.0108949
0.0108612
0.0108226
0.0107806
0.0107363
0.0106909
0.0106458
0.0106017
0.0105594
0.0105196
0.0104825
0.0104485
0.0104175
0.0103896
0.0103645
0.0103422
0.0103224
0.0103049
0.0102893
0.0102755
0.0102633
0.0102524
0.0102426
0.0102338
0.0102259
0.0102187
0.0102121
0.010206
0.0102004
0.0101952
0.0101904
0.0101858
0.0101816
0.0101776
0.0101739
0.0101704
0.0101671
0.010164
0.0101611
0.0101583
0.0101557
0.0101532
0.0101508
0.0101486
0.0101465
0.0101444
0.0101425
0.0101406
0.0101388
0.010137
0.0101353
0.0101336
0.010132
0.0101304
0.0101287
0.0101271
0.0101255
0.0101238
0.0101222
0.0101205
0.0101187
0.010117
0.0101151
0.0101133
0.0101113
0.0101092
0.0101071
0.0101048
0.0101025
0.0100999
0.0100973
0.0100944
0.0100913
0.0100879
0.0100842
0.0100802
0.0100758
0.0100709
0.0100654
0.0100591
0.010052
0.0100438
0.0100341
0.0100226
0.0100086
0.0099912
0.00996913
0.00994035
0.00990189
0.0098497
0.00977852
0.00968106
0.00955038
0.00941356
0.00937594
0.00943282
0.00955711
0.0097363
0.00988791
0.00999262
0.0100628
0.0101095
0.0101403
0.0101604
0.0101735
0.0101821
0.0101875
0.0101909
0.0101928
0.0101936
0.0101937
0.0101932
0.0101925
0.010191
0.0101836
0.0107659
0.0107431
0.0107399
0.01074
0.010741
0.0107435
0.0107478
0.0107539
0.010762
0.0107723
0.0107848
0.0107996
0.0108165
0.0108352
0.0108552
0.0108757
0.0108954
0.0109134
0.0109293
0.010942
0.0109491
0.0109493
0.0109421
0.0109271
0.0109046
0.0108752
0.0108399
0.0108
0.0107568
0.0107116
0.0106659
0.0106206
0.0105769
0.0105353
0.0104965
0.0104607
0.0104282
0.0103989
0.0103727
0.0103494
0.0103288
0.0103107
0.0102948
0.0102808
0.0102684
0.0102575
0.0102478
0.0102391
0.0102313
0.0102242
0.0102177
0.0102117
0.0102062
0.010201
0.0101961
0.0101915
0.0101872
0.0101831
0.0101793
0.0101756
0.0101721
0.0101688
0.0101656
0.0101627
0.0101598
0.0101571
0.0101546
0.0101521
0.0101498
0.0101476
0.0101455
0.0101435
0.0101415
0.0101396
0.0101378
0.010136
0.0101343
0.0101326
0.0101309
0.0101292
0.0101275
0.0101259
0.0101242
0.0101225
0.0101208
0.010119
0.0101172
0.0101153
0.0101134
0.0101114
0.0101094
0.0101072
0.0101049
0.0101026
0.0101
0.0100973
0.0100944
0.0100913
0.010088
0.0100843
0.0100804
0.010076
0.0100711
0.0100657
0.0100596
0.0100526
0.0100446
0.0100353
0.0100244
0.0100112
0.00999525
0.00997551
0.00995073
0.00991926
0.00987924
0.00982897
0.00976747
0.0096971
0.00963585
0.00962574
0.00966981
0.00974963
0.00984866
0.00994154
0.0100148
0.0100691
0.0101082
0.0101357
0.0101549
0.0101681
0.0101771
0.0101832
0.0101872
0.0101896
0.0101909
0.0101913
0.0101912
0.0101907
0.0101893
0.0101816
0.0107573
0.010734
0.0107305
0.0107304
0.010731
0.0107331
0.0107368
0.0107424
0.01075
0.0107598
0.0107719
0.0107863
0.0108029
0.0108215
0.0108415
0.0108619
0.0108816
0.0108998
0.0109158
0.0109282
0.0109345
0.0109336
0.0109248
0.0109079
0.0108833
0.0108518
0.0108145
0.0107727
0.010728
0.0106817
0.0106354
0.01059
0.0105465
0.0105057
0.010468
0.0104338
0.010403
0.0103756
0.0103514
0.0103301
0.0103115
0.0102954
0.0102814
0.0102692
0.0102586
0.0102492
0.010241
0.0102336
0.010227
0.0102209
0.0102153
0.0102101
0.0102052
0.0102006
0.0101962
0.010192
0.0101879
0.0101841
0.0101804
0.0101768
0.0101734
0.0101702
0.0101671
0.0101641
0.0101612
0.0101585
0.0101559
0.0101534
0.010151
0.0101487
0.0101466
0.0101445
0.0101424
0.0101405
0.0101386
0.0101368
0.010135
0.0101332
0.0101315
0.0101298
0.010128
0.0101263
0.0101246
0.0101229
0.0101211
0.0101194
0.0101175
0.0101157
0.0101137
0.0101117
0.0101097
0.0101075
0.0101052
0.0101029
0.0101003
0.0100977
0.0100948
0.0100918
0.0100885
0.0100849
0.010081
0.0100768
0.0100721
0.0100669
0.0100611
0.0100545
0.010047
0.0100384
0.0100283
0.0100166
0.0100026
0.00998587
0.00996571
0.00994139
0.00991234
0.00987855
0.00984119
0.00980412
0.00977787
0.00977988
0.00981322
0.00986772
0.00992891
0.00998825
0.0100395
0.0100805
0.010112
0.0101355
0.0101527
0.0101651
0.010174
0.0101802
0.0101844
0.0101872
0.0101888
0.0101895
0.0101895
0.0101893
0.0101879
0.0101802
0.0107457
0.0107222
0.0107185
0.0107182
0.0107184
0.0107201
0.0107233
0.0107284
0.0107355
0.0107449
0.0107566
0.0107707
0.0107872
0.0108058
0.0108259
0.0108464
0.0108662
0.0108847
0.0109007
0.0109125
0.0109178
0.0109154
0.0109046
0.0108854
0.0108582
0.010824
0.0107841
0.0107401
0.0106936
0.0106461
0.010599
0.0105535
0.0105105
0.0104706
0.0104343
0.0104017
0.010373
0.0103477
0.0103258
0.0103068
0.0102906
0.0102767
0.0102649
0.0102548
0.0102461
0.0102386
0.010232
0.0102262
0.0102209
0.0102161
0.0102116
0.0102073
0.0102032
0.0101993
0.0101954
0.0101917
0.0101881
0.0101846
0.0101811
0.0101777
0.0101745
0.0101713
0.0101683
0.0101653
0.0101625
0.0101597
0.0101571
0.0101546
0.0101522
0.0101498
0.0101476
0.0101455
0.0101434
0.0101414
0.0101394
0.0101376
0.0101357
0.0101339
0.0101321
0.0101304
0.0101286
0.0101269
0.0101252
0.0101234
0.0101216
0.0101198
0.010118
0.0101161
0.0101142
0.0101122
0.0101101
0.010108
0.0101058
0.0101034
0.0101009
0.0100983
0.0100955
0.0100926
0.0100894
0.010086
0.0100822
0.0100782
0.0100738
0.0100689
0.0100634
0.0100574
0.0100506
0.0100428
0.010034
0.0100239
0.0100122
0.00999864
0.00998296
0.009965
0.00994484
0.00992313
0.00990144
0.00988292
0.00987339
0.00988046
0.00990575
0.00994439
0.00998648
0.0100264
0.0100627
0.0100935
0.0101184
0.0101379
0.0101528
0.0101641
0.0101724
0.0101784
0.0101826
0.0101855
0.0101872
0.0101881
0.0101883
0.0101882
0.010187
0.0101796
0.0107311
0.0107078
0.010704
0.0107034
0.0107034
0.0107046
0.0107074
0.010712
0.0107186
0.0107276
0.0107389
0.0107528
0.0107693
0.010788
0.0108083
0.010829
0.0108489
0.0108676
0.0108837
0.0108948
0.0108988
0.0108945
0.0108812
0.0108591
0.0108287
0.0107913
0.0107485
0.0107019
0.0106534
0.0106045
0.0105567
0.0105111
0.0104687
0.01043
0.0103953
0.0103648
0.0103383
0.0103156
0.0102962
0.0102799
0.0102663
0.0102549
0.0102456
0.0102378
0.0102313
0.0102259
0.0102212
0.0102171
0.0102133
0.0102099
0.0102066
0.0102034
0.0102003
0.0101971
0.010194
0.0101909
0.0101877
0.0101846
0.0101815
0.0101784
0.0101753
0.0101723
0.0101693
0.0101664
0.0101636
0.0101609
0.0101583
0.0101558
0.0101533
0.010151
0.0101487
0.0101465
0.0101444
0.0101423
0.0101403
0.0101384
0.0101365
0.0101347
0.0101329
0.0101311
0.0101293
0.0101275
0.0101258
0.010124
0.0101222
0.0101204
0.0101186
0.0101167
0.0101148
0.0101128
0.0101108
0.0101087
0.0101065
0.0101042
0.0101018
0.0100992
0.0100965
0.0100937
0.0100907
0.0100874
0.0100839
0.0100801
0.010076
0.0100715
0.0100666
0.0100612
0.0100552
0.0100485
0.010041
0.0100325
0.0100231
0.0100126
0.0100009
0.00998815
0.00997477
0.0099615
0.00994971
0.00994158
0.00994028
0.00994918
0.00996888
0.00999683
0.0100277
0.0100566
0.010083
0.0101062
0.0101258
0.0101418
0.0101545
0.0101644
0.0101719
0.0101775
0.0101816
0.0101844
0.0101863
0.0101872
0.0101876
0.0101876
0.0101865
0.0101797
0.0107137
0.0106909
0.0106871
0.0106863
0.0106859
0.0106867
0.0106891
0.0106932
0.0106994
0.0107079
0.010719
0.0107327
0.0107492
0.0107681
0.0107886
0.0108097
0.0108297
0.0108486
0.0108646
0.0108748
0.0108772
0.0108705
0.0108542
0.0108285
0.0107944
0.0107533
0.0107071
0.0106577
0.0106069
0.0105567
0.0105083
0.0104629
0.0104214
0.0103841
0.0103514
0.0103233
0.0102996
0.0102797
0.0102632
0.0102497
0.010239
0.0102305
0.0102238
0.0102186
0.0102146
0.0102114
0.0102087
0.0102065
0.0102045
0.0102026
0.0102006
0.0101986
0.0101965
0.0101943
0.010192
0.0101895
0.0101869
0.0101842
0.0101815
0.0101787
0.0101759
0.0101731
0.0101703
0.0101675
0.0101647
0.0101621
0.0101595
0.0101569
0.0101545
0.0101521
0.0101498
0.0101476
0.0101454
0.0101433
0.0101413
0.0101393
0.0101374
0.0101355
0.0101337
0.0101319
0.0101301
0.0101283
0.0101265
0.0101247
0.0101229
0.0101211
0.0101193
0.0101174
0.0101155
0.0101136
0.0101116
0.0101095
0.0101074
0.0101051
0.0101028
0.0101004
0.0100978
0.0100951
0.0100923
0.0100893
0.010086
0.0100826
0.0100788
0.0100748
0.0100704
0.0100657
0.0100605
0.0100549
0.0100487
0.010042
0.0100347
0.0100268
0.0100184
0.0100099
0.0100015
0.00999397
0.00998838
0.0099861
0.00998883
0.00999807
0.0100139
0.0100347
0.0100578
0.0100801
0.0101001
0.0101179
0.0101334
0.0101465
0.0101571
0.0101657
0.0101723
0.0101775
0.0101813
0.010184
0.0101858
0.0101869
0.0101873
0.0101874
0.0101865
0.0101805
0.0106937
0.0106717
0.0106679
0.0106668
0.0106662
0.0106666
0.0106685
0.0106721
0.0106779
0.0106859
0.0106967
0.0107104
0.0107269
0.010746
0.0107669
0.0107882
0.0108086
0.0108276
0.0108433
0.0108524
0.0108528
0.0108432
0.0108233
0.0107935
0.010755
0.0107098
0.0106598
0.0106073
0.0105544
0.0105028
0.0104541
0.0104092
0.0103688
0.0103335
0.0103032
0.0102779
0.0102572
0.0102404
0.0102271
0.0102169
0.0102093
0.0102038
0.0102001
0.0101977
0.0101962
0.0101954
0.010195
0.0101948
0.0101946
0.0101943
0.0101938
0.0101931
0.0101922
0.0101909
0.0101895
0.0101877
0.0101857
0.0101836
0.0101813
0.0101788
0.0101763
0.0101737
0.0101711
0.0101684
0.0101658
0.0101632
0.0101606
0.0101581
0.0101557
0.0101533
0.010151
0.0101487
0.0101465
0.0101444
0.0101423
0.0101403
0.0101384
0.0101364
0.0101346
0.0101327
0.0101309
0.0101291
0.0101273
0.0101255
0.0101237
0.0101219
0.0101201
0.0101183
0.0101164
0.0101145
0.0101125
0.0101105
0.0101085
0.0101063
0.0101041
0.0101018
0.0100994
0.0100969
0.0100942
0.0100915
0.0100885
0.0100854
0.0100821
0.0100785
0.0100748
0.0100708
0.0100664
0.0100618
0.0100569
0.0100518
0.0100463
0.0100407
0.0100351
0.0100297
0.0100249
0.0100213
0.0100196
0.0100206
0.0100252
0.0100341
0.0100471
0.0100632
0.0100808
0.0100983
0.0101143
0.0101284
0.0101408
0.0101514
0.0101603
0.0101676
0.0101735
0.010178
0.0101815
0.0101841
0.0101859
0.0101869
0.0101875
0.0101876
0.0101869
0.0101818
0.0106712
0.0106503
0.0106466
0.0106453
0.0106443
0.0106444
0.0106458
0.0106489
0.0106541
0.0106618
0.0106722
0.0106857
0.0107023
0.0107216
0.0107429
0.0107647
0.0107855
0.0108046
0.0108199
0.0108276
0.0108255
0.0108126
0.0107884
0.0107538
0.0107104
0.0106605
0.0106065
0.0105508
0.0104958
0.0104432
0.0103943
0.0103503
0.0103117
0.0102787
0.0102513
0.0102292
0.0102119
0.0101986
0.0101888
0.010182
0.0101778
0.0101756
0.010175
0.0101755
0.0101767
0.0101784
0.0101803
0.0101822
0.0101839
0.0101853
0.0101864
0.0101871
0.0101873
0.0101871
0.0101866
0.0101856
0.0101843
0.0101827
0.0101809
0.0101788
0.0101766
0.0101743
0.0101718
0.0101693
0.0101668
0.0101643
0.0101618
0.0101593
0.0101569
0.0101545
0.0101521
0.0101499
0.0101477
0.0101455
0.0101434
0.0101414
0.0101394
0.0101374
0.0101355
0.0101337
0.0101318
0.01013
0.0101282
0.0101264
0.0101246
0.0101228
0.010121
0.0101192
0.0101174
0.0101155
0.0101136
0.0101117
0.0101097
0.0101077
0.0101056
0.0101034
0.0101012
0.0100989
0.0100964
0.0100939
0.0100913
0.0100886
0.0100857
0.0100827
0.0100795
0.0100762
0.0100727
0.0100691
0.0100653
0.0100615
0.0100577
0.010054
0.0100505
0.0100475
0.0100453
0.0100443
0.0100449
0.0100478
0.0100532
0.0100615
0.0100724
0.0100853
0.0100991
0.0101129
0.0101258
0.0101375
0.0101476
0.0101564
0.0101638
0.01017
0.0101751
0.0101792
0.0101823
0.0101847
0.0101864
0.0101874
0.010188
0.0101882
0.0101877
0.0101837
0.0106465
0.010627
0.0106234
0.0106219
0.0106206
0.0106202
0.0106211
0.0106236
0.0106282
0.0106354
0.0106455
0.0106588
0.0106754
0.0106951
0.0107168
0.010739
0.0107603
0.0107796
0.0107942
0.0108003
0.0107955
0.0107785
0.0107494
0.0107093
0.0106605
0.0106055
0.0105473
0.0104885
0.0104315
0.0103782
0.0103298
0.0102872
0.0102508
0.0102206
0.0101966
0.0101782
0.0101646
0.010155
0.010149
0.0101459
0.0101452
0.0101464
0.010149
0.0101525
0.0101566
0.0101608
0.0101651
0.0101692
0.0101728
0.010176
0.0101786
0.0101807
0.0101822
0.0101831
0.0101834
0.0101833
0.0101827
0.0101817
0.0101803
0.0101787
0.0101768
0.0101747
0.0101725
0.0101702
0.0101678
0.0101654
0.010163
0.0101605
0.0101581
0.0101557
0.0101534
0.0101511
0.0101489
0.0101467
0.0101446
0.0101425
0.0101405
0.0101385
0.0101366
0.0101347
0.0101328
0.010131
0.0101292
0.0101274
0.0101256
0.0101238
0.0101221
0.0101203
0.0101185
0.0101167
0.0101148
0.010113
0.0101111
0.0101092
0.0101072
0.0101052
0.0101032
0.010101
0.0100989
0.0100966
0.0100943
0.010092
0.0100895
0.010087
0.0100844
0.0100818
0.0100791
0.0100764
0.0100737
0.0100711
0.0100686
0.0100664
0.0100646
0.0100634
0.010063
0.0100637
0.0100658
0.0100696
0.0100753
0.0100829
0.0100922
0.0101028
0.010114
0.0101251
0.0101356
0.0101452
0.0101537
0.0101611
0.0101674
0.0101727
0.0101771
0.0101807
0.0101835
0.0101857
0.0101872
0.0101883
0.0101889
0.0101892
0.0101889
0.0101859
0.0106197
0.010602
0.0105985
0.0105968
0.0105952
0.0105943
0.0105946
0.0105964
0.0106004
0.0106069
0.0106165
0.0106296
0.0106463
0.0106662
0.0106885
0.0107113
0.0107331
0.0107526
0.0107666
0.0107708
0.0107626
0.010741
0.0107063
0.0106601
0.0106053
0.010545
0.0104825
0.0104207
0.0103622
0.0103086
0.0102612
0.0102206
0.010187
0.0101603
0.01014
0.0101257
0.0101161
0.0101105
0.0101085
0.0101093
0.0101123
0.010117
0.0101229
0.0101294
0.0101363
0.0101432
0.0101498
0.010156
0.0101616
0.0101666
0.0101708
0.0101742
0.0101769
0.0101789
0.0101802
0.0101809
0.010181
0.0101806
0.0101797
0.0101785
0.010177
0.0101752
0.0101732
0.0101711
0.0101688
0.0101665
0.0101641
0.0101618
0.0101594
0.010157
0.0101547
0.0101524
0.0101501
0.0101479
0.0101458
0.0101437
0.0101416
0.0101396
0.0101377
0.0101358
0.0101339
0.010132
0.0101302
0.0101284
0.0101267
0.0101249
0.0101232
0.0101214
0.0101197
0.0101179
0.0101162
0.0101144
0.0101126
0.0101108
0.010109
0.0101072
0.0101053
0.0101034
0.0101015
0.0100995
0.0100975
0.0100955
0.0100935
0.0100915
0.0100895
0.0100875
0.0100855
0.0100836
0.0100818
0.0100802
0.0100789
0.0100779
0.0100773
0.0100774
0.0100783
0.0100801
0.0100831
0.0100874
0.010093
0.0101
0.0101081
0.010117
0.0101262
0.0101353
0.010144
0.010152
0.0101592
0.0101655
0.0101709
0.0101755
0.0101793
0.0101825
0.010185
0.010187
0.0101884
0.0101895
0.0101902
0.0101905
0.0101904
0.0101885
0.0105913
0.0105757
0.0105723
0.0105704
0.0105684
0.0105669
0.0105665
0.0105676
0.0105707
0.0105765
0.0105855
0.0105982
0.0106149
0.0106352
0.010658
0.0106815
0.010704
0.0107237
0.010737
0.0107391
0.0107272
0.0107004
0.0106593
0.0106063
0.010545
0.0104792
0.0104125
0.0103481
0.0102884
0.0102353
0.0101895
0.0101516
0.0101215
0.0100988
0.0100829
0.0100728
0.0100675
0.0100662
0.0100683
0.010073
0.0100798
0.0100881
0.0100972
0.0101068
0.0101164
0.0101259
0.0101348
0.0101431
0.0101506
0.0101573
0.010163
0.0101678
0.0101717
0.0101748
0.010177
0.0101785
0.0101793
0.0101795
0.0101791
0.0101783
0.0101772
0.0101757
0.0101739
0.010172
0.0101699
0.0101677
0.0101654
0.010163
0.0101607
0.0101583
0.010156
0.0101537
0.0101514
0.0101492
0.010147
0.0101449
0.0101428
0.0101408
0.0101388
0.0101369
0.010135
0.0101332
0.0101313
0.0101296
0.0101278
0.0101261
0.0101244
0.0101226
0.010121
0.0101193
0.0101176
0.0101159
0.0101142
0.0101126
0.0101109
0.0101092
0.0101075
0.0101058
0.0101042
0.0101025
0.0101008
0.0100992
0.0100976
0.010096
0.0100945
0.0100931
0.0100918
0.0100906
0.0100896
0.0100888
0.0100884
0.0100884
0.0100888
0.0100898
0.0100916
0.0100941
0.0100976
0.0101021
0.0101076
0.0101139
0.010121
0.0101286
0.0101364
0.0101441
0.0101513
0.0101581
0.0101642
0.0101696
0.0101742
0.0101783
0.0101816
0.0101844
0.0101867
0.0101885
0.0101899
0.010191
0.0101917
0.0101921
0.0101922
0.0101914
0.0105615
0.0105482
0.010545
0.0105429
0.0105404
0.0105383
0.0105371
0.0105372
0.0105394
0.0105442
0.0105525
0.0105647
0.0105812
0.0106019
0.0106254
0.0106498
0.010673
0.0106932
0.0107058
0.0107056
0.0106896
0.0106567
0.0106085
0.0105482
0.0104801
0.0104086
0.010338
0.0102714
0.0102114
0.0101594
0.0101161
0.0100816
0.0100556
0.0100374
0.0100263
0.0100208
0.0100199
0.0100229
0.0100292
0.010038
0.0100485
0.0100602
0.0100725
0.0100851
0.0100974
0.0101093
0.0101205
0.0101308
0.0101401
0.0101484
0.0101556
0.0101617
0.0101668
0.0101708
0.0101739
0.0101762
0.0101777
0.0101784
0.0101786
0.0101782
0.0101774
0.0101762
0.0101747
0.0101729
0.0101709
0.0101688
0.0101666
0.0101643
0.010162
0.0101597
0.0101573
0.010155
0.0101527
0.0101505
0.0101483
0.0101462
0.0101441
0.010142
0.01014
0.0101381
0.0101362
0.0101343
0.0101325
0.0101307
0.010129
0.0101273
0.0101256
0.0101239
0.0101223
0.0101207
0.0101191
0.0101175
0.0101159
0.0101144
0.0101128
0.0101113
0.0101098
0.0101084
0.0101069
0.0101056
0.0101042
0.0101029
0.0101017
0.0101006
0.0100995
0.0100986
0.0100979
0.0100973
0.010097
0.0100969
0.0100972
0.0100979
0.0100991
0.0101008
0.0101031
0.0101062
0.0101099
0.0101144
0.0101196
0.0101255
0.0101318
0.0101384
0.0101451
0.0101516
0.0101578
0.0101635
0.0101688
0.0101734
0.0101775
0.010181
0.010184
0.0101865
0.0101886
0.0101903
0.0101916
0.0101926
0.0101934
0.0101939
0.0101942
0.0101944
0.0105306
0.01052
0.0105171
0.0105147
0.0105117
0.0105089
0.0105067
0.0105057
0.0105066
0.0105103
0.0105176
0.0105292
0.0105454
0.0105664
0.0105908
0.0106163
0.0106405
0.0106613
0.0106734
0.0106708
0.01065
0.0106105
0.0105544
0.0104861
0.0104109
0.0103339
0.0102598
0.0101918
0.0101323
0.0100823
0.0100423
0.010012
0.00999066
0.0099775
0.00997141
0.00997072
0.00997432
0.00998179
0.00999227
0.0100049
0.0100191
0.0100341
0.0100495
0.0100648
0.0100797
0.0100939
0.0101071
0.0101193
0.0101304
0.0101402
0.0101487
0.010156
0.0101622
0.0101672
0.0101711
0.0101741
0.0101762
0.0101775
0.0101782
0.0101782
0.0101777
0.0101767
0.0101754
0.0101738
0.010172
0.01017
0.0101679
0.0101656
0.0101634
0.010161
0.0101587
0.0101564
0.0101541
0.0101518
0.0101496
0.0101475
0.0101453
0.0101433
0.0101413
0.0101393
0.0101374
0.0101355
0.0101337
0.0101319
0.0101302
0.0101285
0.0101269
0.0101252
0.0101237
0.0101221
0.0101206
0.0101191
0.0101176
0.0101162
0.0101148
0.0101135
0.0101122
0.0101109
0.0101097
0.0101086
0.0101076
0.0101066
0.0101057
0.010105
0.0101044
0.0101039
0.0101037
0.0101036
0.0101039
0.0101044
0.0101053
0.0101065
0.0101083
0.0101105
0.0101132
0.0101165
0.0101204
0.0101248
0.0101298
0.0101351
0.0101408
0.0101466
0.0101525
0.0101581
0.0101635
0.0101685
0.010173
0.0101771
0.0101806
0.0101837
0.0101864
0.0101887
0.0101906
0.0101921
0.0101934
0.0101945
0.0101953
0.0101958
0.0101963
0.0101975
0.0104991
0.0104915
0.0104889
0.0104861
0.0104827
0.010479
0.0104757
0.0104733
0.0104728
0.0104751
0.0104811
0.0104917
0.0105076
0.0105288
0.0105542
0.0105811
0.0106065
0.0106283
0.0106402
0.0106351
0.0106092
0.0105622
0.0104975
0.0104207
0.0103382
0.010256
0.010179
0.0101104
0.0100523
0.0100054
0.00996953
0.00994411
0.0099281
0.00992036
0.00991934
0.00992345
0.00993169
0.00994356
0.00995814
0.00997458
0.00999218
0.0100103
0.0100286
0.0100465
0.0100637
0.0100799
0.0100951
0.010109
0.0101216
0.0101327
0.0101425
0.010151
0.0101581
0.010164
0.0101687
0.0101723
0.010175
0.0101768
0.0101779
0.0101782
0.010178
0.0101774
0.0101763
0.0101748
0.0101731
0.0101712
0.0101692
0.010167
0.0101647
0.0101624
0.0101601
0.0101578
0.0101555
0.0101532
0.010151
0.0101488
0.0101466
0.0101445
0.0101425
0.0101405
0.0101386
0.0101367
0.0101349
0.0101331
0.0101314
0.0101298
0.0101281
0.0101266
0.010125
0.0101235
0.0101221
0.0101207
0.0101194
0.0101181
0.0101168
0.0101156
0.0101145
0.0101135
0.0101125
0.0101116
0.0101108
0.0101102
0.0101096
0.0101093
0.010109
0.010109
0.0101092
0.0101096
0.0101103
0.0101113
0.0101126
0.0101143
0.0101165
0.010119
0.010122
0.0101255
0.0101294
0.0101337
0.0101384
0.0101433
0.0101485
0.0101537
0.0101589
0.0101638
0.0101685
0.0101729
0.0101769
0.0101805
0.0101836
0.0101864
0.0101888
0.0101909
0.0101926
0.0101941
0.0101953
0.0101964
0.0101972
0.0101979
0.0101986
0.0102006
0.0104673
0.0104631
0.0104608
0.0104577
0.0104537
0.0104491
0.0104445
0.0104405
0.0104383
0.0104387
0.0104431
0.0104525
0.0104677
0.0104892
0.0105157
0.0105445
0.0105715
0.0105948
0.0106068
0.0105993
0.0105677
0.0105125
0.0104383
0.0103524
0.0102627
0.0101757
0.0100967
0.0100286
0.00997299
0.00993011
0.0098993
0.00987945
0.00986923
0.00986722
0.00987125
0.00987997
0.00989285
0.00990901
0.00992748
0.00994744
0.00996822
0.00998924
0.01001
0.0100302
0.0100495
0.0100677
0.0100845
0.0101
0.0101139
0.0101263
0.0101372
0.0101466
0.0101546
0.0101612
0.0101666
0.0101709
0.0101741
0.0101763
0.0101778
0.0101785
0.0101785
0.0101781
0.0101772
0.0101759
0.0101743
0.0101725
0.0101705
0.0101683
0.0101661
0.0101638
0.0101615
0.0101592
0.0101568
0.0101545
0.0101523
0.0101501
0.0101479
0.0101458
0.0101437
0.0101417
0.0101398
0.0101379
0.0101361
0.0101344
0.0101327
0.010131
0.0101294
0.0101279
0.0101264
0.010125
0.0101236
0.0101223
0.0101211
0.0101199
0.0101188
0.0101178
0.0101168
0.010116
0.0101152
0.0101146
0.010114
0.0101136
0.0101134
0.0101133
0.0101134
0.0101138
0.0101143
0.0101151
0.0101162
0.0101176
0.0101193
0.0101213
0.0101237
0.0101265
0.0101297
0.0101332
0.0101371
0.0101413
0.0101458
0.0101504
0.0101551
0.0101598
0.0101644
0.0101689
0.0101731
0.0101769
0.0101805
0.0101837
0.0101865
0.010189
0.0101912
0.0101931
0.0101947
0.0101961
0.0101973
0.0101983
0.0101993
0.0102
0.0102008
0.0102037
0.0104357
0.0104351
0.0104332
0.0104299
0.0104252
0.0104196
0.0104135
0.0104078
0.0104035
0.0104017
0.0104041
0.0104118
0.010426
0.0104475
0.0104754
0.0105065
0.0105359
0.0105612
0.0105741
0.0105643
0.0105267
0.0104623
0.0103776
0.0102822
0.0101852
0.0100941
0.010014
0.00994763
0.00989574
0.00985792
0.00983295
0.00981924
0.0098151
0.00981874
0.00982788
0.00984125
0.00985854
0.0098787
0.00990076
0.00992392
0.00994756
0.00997112
0.00999419
0.0100164
0.0100375
0.0100573
0.0100756
0.0100923
0.0101074
0.0101209
0.0101327
0.010143
0.0101517
0.010159
0.010165
0.0101698
0.0101734
0.0101761
0.0101778
0.0101788
0.0101791
0.0101789
0.0101781
0.010177
0.0101755
0.0101737
0.0101718
0.0101697
0.0101675
0.0101652
0.0101629
0.0101605
0.0101582
0.0101559
0.0101536
0.0101513
0.0101492
0.010147
0.010145
0.0101429
0.010141
0.0101391
0.0101373
0.0101356
0.0101339
0.0101323
0.0101307
0.0101292
0.0101278
0.0101264
0.0101251
0.0101239
0.0101228
0.0101217
0.0101207
0.0101199
0.0101191
0.0101184
0.0101178
0.0101174
0.0101171
0.010117
0.010117
0.0101172
0.0101176
0.0101182
0.0101191
0.0101202
0.0101216
0.0101233
0.0101253
0.0101276
0.0101302
0.0101332
0.0101364
0.01014
0.0101438
0.0101479
0.0101521
0.0101564
0.0101608
0.0101651
0.0101693
0.0101733
0.0101771
0.0101806
0.0101838
0.0101866
0.0101892
0.0101915
0.0101935
0.0101952
0.0101967
0.0101981
0.0101993
0.0102003
0.0102013
0.0102021
0.0102031
0.0102066
0.0104046
0.0104081
0.0104066
0.010403
0.0103978
0.0103911
0.0103835
0.0103757
0.0103689
0.0103646
0.0103642
0.0103697
0.0103825
0.0104039
0.0104332
0.0104673
0.0105002
0.010528
0.0105428
0.0105312
0.010487
0.0104124
0.0103162
0.0102107
0.0101067
0.0100123
0.00993229
0.00986882
0.00982184
0.00979008
0.00977166
0.00976454
0.00976671
0.00977571
0.00978964
0.00980765
0.00982912
0.00985296
0.00987824
0.00990423
0.00993036
0.00995611
0.00998111
0.010005
0.0100277
0.0100488
0.0100683
0.0100861
0.0101022
0.0101165
0.0101292
0.0101401
0.0101495
0.0101574
0.0101639
0.010169
0.0101731
0.0101761
0.0101781
0.0101793
0.0101798
0.0101797
0.0101791
0.0101781
0.0101767
0.010175
0.0101731
0.010171
0.0101688
0.0101666
0.0101642
0.0101619
0.0101595
0.0101572
0.0101549
0.0101526
0.0101504
0.0101482
0.0101461
0.0101441
0.0101422
0.0101403
0.0101385
0.0101367
0.0101351
0.0101335
0.0101319
0.0101305
0.0101291
0.0101278
0.0101266
0.0101255
0.0101244
0.0101235
0.0101226
0.0101219
0.0101212
0.0101207
0.0101203
0.0101201
0.01012
0.0101201
0.0101203
0.0101208
0.0101215
0.0101224
0.0101235
0.0101249
0.0101265
0.0101284
0.0101307
0.0101332
0.0101359
0.010139
0.0101423
0.0101459
0.0101497
0.0101536
0.0101576
0.0101617
0.0101658