/*--------------------------------*- C++ -*----------------------------------*\
| =========                 |                                                 |
| \\      /  F ield         | OpenFOAM: The Open Source CFD Toolbox           |
|  \\    /   O peration     | Version:  2306                                  |
|   \\  /    A nd           | Website:  www.openfoam.com                      |
|    \\/     M anipulation  |                                                 |
\*---------------------------------------------------------------------------*/
FoamFile
{
    version     2.0;
    format      ascii;
    arch        "LSB;label=32;scalar=64";
    class       surfaceScalarField;
    location    "50";
    object      phi;
}
// * * * * * * * * * * * * * * * * * * * * * * * * * * * * * * * * * * * * * //

dimensions      [0 3 -1 0 0 0 0];

oriented        oriented;

internalField   nonuniform List<scalar> 
8788
(
-6.81001e-07
6.81002e-07
-1.59398e-06
9.12981e-07
-2.62991e-06
1.03593e-06
-3.74257e-06
1.11266e-06
-4.88316e-06
1.14059e-06
-6.00228e-06
1.11913e-06
-7.05278e-06
1.0505e-06
-7.98933e-06
9.36546e-07
-8.76767e-06
7.78337e-07
-9.34438e-06
5.7671e-07
-9.67709e-06
3.3271e-07
-9.72502e-06
4.79373e-08
-9.44936e-06
-2.75659e-07
-8.81537e-06
-6.33995e-07
-7.79507e-06
-1.0203e-06
-6.37037e-06
-1.4247e-06
-4.53583e-06
-1.83454e-06
-2.30081e-06
-2.23502e-06
3.10419e-07
-2.61123e-06
3.25186e-06
-2.94144e-06
6.45247e-06
-3.20061e-06
9.82915e-06
-3.37668e-06
1.32944e-05
-3.46523e-06
1.67604e-05
-3.466e-06
2.01434e-05
-3.38306e-06
2.33678e-05
-3.22432e-06
2.63683e-05
-3.00057e-06
2.90927e-05
-2.7244e-06
3.1502e-05
-2.40926e-06
3.35705e-05
-2.06851e-06
3.52853e-05
-1.71477e-06
3.66447e-05
-1.3594e-06
3.76569e-05
-1.01221e-06
3.83382e-05
-6.81298e-07
3.87111e-05
-3.72957e-07
3.88026e-05
-9.15054e-08
3.86415e-05
1.61183e-07
3.82567e-05
3.84726e-07
3.76776e-05
5.79144e-07
3.69326e-05
7.45007e-07
3.60493e-05
8.83307e-07
3.50538e-05
9.95426e-07
3.39708e-05
1.08306e-06
3.28226e-05
1.14814e-06
3.16299e-05
1.19276e-06
3.04108e-05
1.21907e-06
2.91815e-05
1.22926e-06
2.79561e-05
1.22546e-06
2.67463e-05
1.20974e-06
2.55623e-05
1.18402e-06
2.44122e-05
1.15012e-06
2.33025e-05
1.10967e-06
2.22384e-05
1.06415e-06
2.12235e-05
1.01488e-06
2.02605e-05
9.63022e-07
1.93509e-05
9.09557e-07
1.84956e-05
8.55342e-07
1.76945e-05
8.01092e-07
1.69471e-05
7.47399e-07
1.62523e-05
6.94746e-07
1.56088e-05
6.43519e-07
1.50148e-05
5.94018e-07
1.44683e-05
5.46468e-07
1.39673e-05
5.01031e-07
1.35095e-05
4.57816e-07
1.30926e-05
4.16884e-07
1.27144e-05
3.78257e-07
1.23724e-05
3.41927e-07
1.20646e-05
3.07857e-07
1.17886e-05
2.75987e-07
1.15423e-05
2.46243e-07
1.13238e-05
2.18531e-07
1.11311e-05
1.9275e-07
1.09623e-05
1.68785e-07
1.08158e-05
1.46518e-07
1.06899e-05
1.2582e-07
1.05834e-05
1.0656e-07
1.04948e-05
8.86032e-08
1.0423e-05
7.18113e-08
1.03669e-05
5.60431e-08
1.03258e-05
4.11557e-08
1.02988e-05
2.70042e-08
1.02853e-05
1.34437e-08
1.0285e-05
3.23105e-10
1.02975e-05
-1.24922e-08
1.03227e-05
-2.51854e-08
1.03606e-05
-3.79264e-08
1.04115e-05
-5.09003e-08
1.04758e-05
-6.43041e-08
1.05542e-05
-7.8352e-08
1.06474e-05
-9.32801e-08
1.07568e-05
-1.09352e-07
1.08837e-05
-1.26867e-07
1.10298e-05
-1.46165e-07
1.11975e-05
-1.67643e-07
1.13892e-05
-1.91763e-07
1.16083e-05
-2.19072e-07
1.18585e-05
-2.50226e-07
1.21445e-05
-2.86014e-07
1.24719e-05
-3.27401e-07
1.28475e-05
-3.75571e-07
1.32795e-05
-4.31992e-07
1.3778e-05
-4.985e-07
1.43554e-05
-5.77406e-07
1.5027e-05
-6.71633e-07
1.58119e-05
-7.84889e-07
1.67338e-05
-9.21883e-07
1.78224e-05
-1.08858e-06
1.91149e-05
-1.29248e-06
2.06578e-05
-1.54291e-06
2.25099e-05
-1.85213e-06
2.47522e-05
-2.2423e-06
2.75242e-05
-2.77203e-06
3.11099e-05
-3.58562e-06
3.60706e-05
-4.96072e-06
4.3899e-05
-7.82839e-06
6.19577e-05
-1.80587e-05
0.000124609
-6.26515e-05
6.40326e-05
-0.000162551
8.46237e-06
-0.000214329
-4.87796e-05
-0.000217811
-0.000112788
-0.000167912
-4.81847e-05
-6.46028e-05
-2.94183e-05
-1.87664e-05
-2.14052e-05
-8.0131e-06
-1.64853e-05
-4.91993e-06
-1.30363e-05
-3.44898e-06
-1.04311e-05
-2.60525e-06
-8.35583e-06
-2.07524e-06
-6.66113e-06
-1.6947e-06
-5.2649e-06
-1.39623e-06
-4.11032e-06
-1.15458e-06
-3.15387e-06
-9.56454e-07
-2.36188e-06
-7.91995e-07
-1.7086e-06
-6.53274e-07
-1.17473e-06
-5.33874e-07
-7.45892e-07
-4.28835e-07
-4.10668e-07
-3.35224e-07
-1.59428e-07
-2.5124e-07
-1.59428e-07
-9.18027e-07
1.59903e-06
-2.0003e-06
1.99525e-06
-3.23301e-06
2.26864e-06
-4.54782e-06
2.42747e-06
-5.88565e-06
2.47842e-06
-7.19083e-06
2.4243e-06
-8.40863e-06
2.2683e-06
-9.48533e-06
2.01325e-06
-1.03682e-05
1.66125e-06
-1.10058e-05
1.21424e-06
-1.13478e-05
6.74762e-07
-1.13465e-05
4.65649e-08
-1.09571e-05
-6.65049e-07
-1.01405e-05
-1.45054e-06
-8.86636e-06
-2.29446e-06
-7.1158e-06
-3.17526e-06
-4.88466e-06
-4.06568e-06
-2.18541e-06
-4.93427e-06
9.51887e-07
-5.74852e-06
4.46571e-06
-6.45525e-06
8.27158e-06
-7.00649e-06
1.22757e-05
-7.3808e-06
1.6378e-05
-7.56758e-06
2.04784e-05
-7.5663e-06
2.44812e-05
-7.3859e-06
2.83002e-05
-7.04329e-06
3.1861e-05
-6.56141e-06
3.51036e-05
-5.96698e-06
3.79827e-05
-5.28839e-06
4.04681e-05
-4.55392e-06
4.25436e-05
-3.79028e-06
4.42058e-05
-3.02159e-06
4.54623e-05
-2.26871e-06
4.63299e-05
-1.5489e-06
4.68327e-05
-8.75665e-07
4.69997e-05
-2.5855e-07
4.68635e-05
2.97409e-07
4.64574e-05
7.90759e-07
4.58152e-05
1.22137e-06
4.497e-05
1.59019e-06
4.39542e-05
1.89918e-06
4.27984e-05
2.15115e-06
4.15319e-05
2.34963e-06
4.01814e-05
2.49866e-06
3.87715e-05
2.60265e-06
3.73243e-05
2.6662e-06
3.58596e-05
2.69399e-06
3.43945e-05
2.69061e-06
3.29437e-05
2.66054e-06
3.15197e-05
2.60798e-06
3.01329e-05
2.53689e-06
2.87917e-05
2.45087e-06
2.75027e-05
2.35319e-06
2.62708e-05
2.24677e-06
2.50996e-05
2.13419e-06
2.39915e-05
2.01766e-06
2.29478e-05
1.89912e-06
2.19687e-05
1.78017e-06
2.10539e-05
1.66217e-06
2.02024e-05
1.54622e-06
1.94127e-05
1.43322e-06
1.86829e-05
1.32385e-06
1.80107e-05
1.21864e-06
1.73938e-05
1.118e-06
1.68294e-05
1.02216e-06
1.6315e-05
9.31306e-07
1.58478e-05
8.45491e-07
1.5425e-05
7.64715e-07
1.50439e-05
6.88908e-07
1.4702e-05
6.17954e-07
1.43965e-05
5.51691e-07
1.41251e-05
4.89923e-07
1.38854e-05
4.32429e-07
1.36753e-05
3.78963e-07
1.34925e-05
3.29261e-07
1.33353e-05
2.83045e-07
1.32018e-05
2.40027e-07
1.30905e-05
1.99908e-07
1.29999e-05
1.62383e-07
1.29288e-05
1.27141e-07
1.28761e-05
9.38638e-08
1.28409e-05
6.22315e-08
1.28224e-05
3.1919e-08
1.28202e-05
2.59836e-09
1.28337e-05
-2.60585e-08
1.2863e-05
-5.44172e-08
1.29079e-05
-8.28702e-08
1.29688e-05
-1.11827e-07
1.30463e-05
-1.41724e-07
1.31409e-05
-1.73036e-07
1.32539e-05
-2.06286e-07
1.33866e-05
-2.42058e-07
1.35408e-05
-2.81011e-07
1.37185e-05
-3.239e-07
1.39225e-05
-3.71595e-07
1.41558e-05
-4.25118e-07
1.44224e-05
-4.85676e-07
1.47269e-05
-5.54709e-07
1.50749e-05
-6.33958e-07
1.5473e-05
-7.25545e-07
1.59295e-05
-8.32082e-07
1.64543e-05
-9.56814e-07
1.70597e-05
-1.10382e-06
1.77605e-05
-1.27826e-06
1.85757e-05
-1.48679e-06
1.95288e-05
-1.73802e-06
2.06503e-05
-2.04339e-06
2.19801e-05
-2.4184e-06
2.35725e-05
-2.88483e-06
2.55046e-05
-3.47503e-06
2.78935e-05
-4.24107e-06
3.0928e-05
-5.27677e-06
3.4925e-05
-6.76901e-06
4.04411e-05
-9.10172e-06
4.85517e-05
-1.30714e-05
6.13168e-05
-2.05934e-05
8.02237e-05
-3.69656e-05
9.08764e-05
-7.33042e-05
5.80002e-05
-0.000129675
8.91194e-06
-0.000165241
-4.12237e-05
-0.000167675
-7.54244e-05
-0.000133711
-6.4177e-05
-7.58502e-05
-4.46801e-05
-3.82633e-05
-3.15494e-05
-2.11438e-05
-2.32688e-05
-1.32005e-05
-1.77139e-05
-9.00387e-06
-1.37575e-05
-6.56161e-06
-1.08077e-05
-5.02507e-06
-8.52568e-06
-3.97674e-06
-6.71077e-06
-3.21114e-06
-5.24042e-06
-2.62493e-06
-4.03582e-06
-2.16105e-06
-3.04355e-06
-1.78427e-06
-2.22589e-06
-1.47094e-06
-1.55548e-06
-1.20428e-06
-1.01199e-06
-9.72324e-07
-5.80417e-07
-7.66797e-07
-2.50746e-07
-5.80912e-07
-4.10174e-07
-1.05974e-06
2.65877e-06
-2.31486e-06
3.25037e-06
-3.70974e-06
3.66352e-06
-5.18226e-06
3.89998e-06
-6.66968e-06
3.96584e-06
-8.11081e-06
3.86543e-06
-9.44532e-06
3.60281e-06
-1.06136e-05
3.18151e-06
-1.15568e-05
2.6045e-06
-1.22175e-05
1.8749e-06
-1.25398e-05
9.97017e-07
-1.24705e-05
-2.26552e-08
-1.1961e-05
-1.17459e-06
-1.09692e-05
-2.44229e-06
-9.46337e-06
-3.80034e-06
-7.42448e-06
-5.21414e-06
-4.84986e-06
-6.6403e-06
-1.75562e-06
-8.02852e-06
1.82045e-06
-9.32459e-06
5.80301e-06
-1.04378e-05
1.00978e-05
-1.13013e-05
1.46008e-05
-1.18838e-05
1.92024e-05
-1.21692e-05
2.37936e-05
-1.21575e-05
2.82712e-05
-1.18635e-05
3.25423e-05
-1.13143e-05
3.65272e-05
-1.05463e-05
4.01618e-05
-9.60157e-06
4.33978e-05
-8.52442e-06
4.62028e-05
-7.35892e-06
4.85591e-05
-6.14658e-06
5.04624e-05
-4.92484e-06
5.19197e-05
-3.7261e-06
5.29481e-05
-2.57721e-06
5.35717e-05
-1.49926e-06
5.38206e-05
-5.07486e-07
5.37288e-05
3.89153e-07
5.33323e-05
1.18729e-06
5.26673e-05
1.8864e-06
5.17698e-05
2.48766e-06
5.06752e-05
2.99381e-06
4.94173e-05
3.40903e-06
4.80283e-05
3.73865e-06
4.65381e-05
3.98887e-06
4.49742e-05
4.16648e-06
4.33618e-05
4.27867e-06
4.1723e-05
4.33272e-06
4.00777e-05
4.33591e-06
3.8443e-05
4.29528e-06
3.68334e-05
4.21756e-06
3.52612e-05
4.10904e-06
3.37366e-05
3.97553e-06
3.22674e-05
3.82232e-06
3.08601e-05
3.65416e-06
2.9519e-05
3.47522e-06
2.82475e-05
3.28919e-06
2.70474e-05
3.09922e-06
2.59196e-05
2.908e-06
2.4864e-05
2.71778e-06
2.38798e-05
2.53043e-06
2.29655e-05
2.34746e-06
2.21193e-05
2.17004e-06
2.13388e-05
1.99911e-06
2.06215e-05
1.83534e-06
1.99645e-05
1.67921e-06
1.93648e-05
1.531e-06
1.88194e-05
1.39088e-06
1.83252e-05
1.25885e-06
1.78793e-05
1.13484e-06
1.74786e-05
1.01868e-06
1.71201e-05
9.10118e-07
1.68012e-05
8.08858e-07
1.65191e-05
7.14547e-07
1.62713e-05
6.26798e-07
1.60553e-05
5.45188e-07
1.58691e-05
4.69272e-07
1.57105e-05
3.98584e-07
1.55778e-05
3.32643e-07
1.54692e-05
2.70955e-07
1.53834e-05
2.13013e-07
1.53189e-05
1.58303e-07
1.52749e-05
1.06303e-07
1.52503e-05
5.64825e-08
1.52446e-05
8.30561e-09
1.52573e-05
-3.87668e-08
1.52882e-05
-8.53185e-08
1.53373e-05
-1.31984e-07
1.54049e-05
-1.79427e-07
1.54915e-05
-2.28356e-07
1.5598e-05
-2.7954e-07
1.57256e-05
-3.33823e-07
1.58757e-05
-3.92147e-07
1.60502e-05
-4.55573e-07
1.62516e-05
-5.25311e-07
1.64828e-05
-6.02758e-07
1.67472e-05
-6.89546e-07
1.70492e-05
-7.87599e-07
1.73937e-05
-8.99215e-07
1.77869e-05
-1.02716e-06
1.82361e-05
-1.17481e-06
1.87504e-05
-1.3463e-06
1.93404e-05
-1.54681e-06
2.00194e-05
-1.78282e-06
2.08037e-05
-2.06261e-06
2.17138e-05
-2.39691e-06
2.27756e-05
-2.79984e-06
2.40227e-05
-3.29045e-06
2.54995e-05
-3.89522e-06
2.7267e-05
-4.65231e-06
2.94113e-05
-5.61934e-06
3.20582e-05
-6.88797e-06
3.53939e-05
-8.61249e-06
3.96891e-05
-1.10642e-05
4.5316e-05
-1.47286e-05
5.27205e-05
-2.04759e-05
6.20358e-05
-2.99087e-05
7.09997e-05
-4.59296e-05
6.98875e-05
-7.2192e-05
4.64536e-05
-0.000106241
9.912e-06
-0.000128699
-2.73252e-05
-0.000130438
-5.16819e-05
-0.000109355
-5.28117e-05
-7.47205e-05
-4.35021e-05
-4.75729e-05
-3.38167e-05
-3.08292e-05
-2.61298e-05
-2.08874e-05
-2.03237e-05
-1.48099e-05
-1.59377e-05
-1.09476e-05
-1.25774e-05
-8.38535e-06
-9.95171e-06
-6.60246e-06
-7.85907e-06
-5.30378e-06
-6.16394e-06
-4.32006e-06
-4.77469e-06
-3.5503e-06
-3.62805e-06
-2.93091e-06
-2.67921e-06
-2.41978e-06
-1.89565e-06
-1.98785e-06
-1.25319e-06
-1.61478e-06
-7.33414e-07
-1.28657e-06
-3.20952e-07
-9.93374e-07
-7.31126e-07
-1.17077e-06
3.82954e-06
-2.55005e-06
4.62965e-06
-4.0688e-06
5.18227e-06
-5.65983e-06
5.49102e-06
-7.25653e-06
5.56254e-06
-8.79349e-06
5.40239e-06
-1.02061e-05
5.01545e-06
-1.14305e-05
4.40586e-06
-1.24033e-05
3.57734e-06
-1.30626e-05
2.53419e-06
-1.33482e-05
1.28265e-06
-1.32032e-05
-1.67704e-07
-1.25754e-05
-1.80236e-06
-1.14208e-05
-3.59688e-06
-9.7062e-06
-5.51497e-06
-7.41246e-06
-7.50788e-06
-4.53794e-06
-9.51482e-06
-1.10172e-06
-1.14647e-05
2.84927e-06
-1.32756e-05
7.22551e-06
-1.48141e-05
1.19244e-05
-1.60002e-05
1.68327e-05
-1.67921e-05
2.18324e-05
-1.71688e-05
2.68069e-05
-1.7132e-05
3.16473e-05
-1.67039e-05
3.62566e-05
-1.59236e-05
4.05526e-05
-1.48423e-05
4.44698e-05
-1.35188e-05
4.79598e-05
-1.20144e-05
5.09905e-05
-1.03896e-05
5.35448e-05
-8.70086e-06
5.56191e-05
-6.99913e-06
5.72212e-05
-5.32824e-06
5.83685e-05
-3.7245e-06
5.90857e-05
-2.21646e-06
5.94032e-05
-8.24984e-07
5.93555e-05
4.36837e-07
5.89795e-05
1.56333e-06
5.83126e-05
2.55325e-06
5.73925e-05
3.40777e-06
5.6256e-05
4.13031e-06
5.49387e-05
4.72629e-06
5.34746e-05
5.20276e-06
5.18955e-05
5.56803e-06
5.02307e-05
5.83129e-06
4.85071e-05
6.00226e-06
4.67489e-05
6.09093e-06
4.49775e-05
6.10725e-06
4.32119e-05
6.06095e-06
4.14681e-05
5.96134e-06
3.97599e-05
5.81719e-06
3.80989e-05
5.63662e-06
3.64941e-05
5.42708e-06
3.4953e-05
5.19526e-06
3.34811e-05
4.94712e-06
3.20824e-05
4.68791e-06
3.07594e-05
4.42217e-06
2.95136e-05
4.15379e-06
2.83454e-05
3.88604e-06
2.72541e-05
3.62166e-06
2.62387e-05
3.36288e-06
2.52973e-05
3.11146e-06
2.44276e-05
2.8688e-06
2.3627e-05
2.63593e-06
2.28927e-05
2.41359e-06
2.22214e-05
2.20227e-06
2.161e-05
2.00224e-06
2.10553e-05
1.81356e-06
2.0554e-05
1.63617e-06
2.01028e-05
1.46986e-06
1.96986e-05
1.3143e-06
1.93384e-05
1.1691e-06
1.90192e-05
1.03378e-06
1.87382e-05
9.07793e-07
1.84928e-05
7.90564e-07
1.82806e-05
6.81466e-07
1.80993e-05
5.79846e-07
1.7947e-05
4.85024e-07
1.78216e-05
3.96303e-07
1.77217e-05
3.12967e-07
1.76457e-05
2.34287e-07
1.75925e-05
1.5952e-07
1.7561e-05
8.79127e-08
1.75506e-05
1.87005e-08
1.75607e-05
-4.88851e-08
1.75911e-05
-1.15666e-07
1.76416e-05
-1.82534e-07
1.77126e-05
-2.50425e-07
1.78046e-05
-3.20338e-07
1.79184e-05
-3.93355e-07
1.80553e-05
-4.70662e-07
1.82167e-05
-5.53576e-07
1.84047e-05
-6.43578e-07
1.86218e-05
-7.42352e-07
1.88708e-05
-8.51833e-07
1.91556e-05
-9.74276e-07
1.94803e-05
-1.11233e-06
1.98502e-05
-1.26916e-06
2.02716e-05
-1.44853e-06
2.07519e-05
-1.65506e-06
2.12999e-05
-1.89439e-06
2.19267e-05
-2.17352e-06
2.26451e-05
-2.50127e-06
2.34713e-05
-2.88885e-06
2.44252e-05
-3.3508e-06
2.55316e-05
-3.90625e-06
2.68222e-05
-4.58101e-06
2.83377e-05
-5.41075e-06
3.01317e-05
-6.44626e-06
3.22745e-05
-7.76217e-06
3.48583e-05
-9.47172e-06
3.79972e-05
-1.17515e-05
4.18144e-05
-1.48814e-05
4.63894e-05
-1.93035e-05
5.16115e-05
-2.56981e-05
5.67665e-05
-3.50636e-05
5.95262e-05
-4.86894e-05
5.47361e-05
-6.74018e-05
3.70291e-05
-8.85343e-05
1.08871e-05
-0.000102557
-1.57484e-05
-0.000103802
-3.41742e-05
-9.09288e-05
-3.91889e-05
-6.97058e-05
-3.63068e-05
-5.0455e-05
-3.08925e-05
-3.62434e-05
-2.53979e-05
-2.6382e-05
-2.05932e-05
-1.96146e-05
-1.66071e-05
-1.49337e-05
-1.33588e-05
-1.16337e-05
-1.07159e-05
-9.24538e-06
-8.55342e-06
-7.46621e-06
-6.77055e-06
-6.10293e-06
-5.29042e-06
-5.03043e-06
-4.05563e-06
-4.1657e-06
-3.02338e-06
-3.45203e-06
-2.1615e-06
-2.84973e-06
-1.44554e-06
-2.33074e-06
-8.56595e-07
-1.87552e-06
-3.79157e-07
-1.47081e-06
-1.11028e-06
-1.25039e-06
5.07993e-06
-2.71662e-06
6.09588e-06
-4.32301e-06
6.78866e-06
-5.99715e-06
7.16515e-06
-7.66863e-06
7.23403e-06
-9.26872e-06
7.00247e-06
-1.07296e-05
6.47635e-06
-1.19841e-05
5.66037e-06
-1.29656e-05
4.55885e-06
-1.36086e-05
3.17718e-06
-1.38495e-05
1.52355e-06
-1.3628e-05
-3.89234e-07
-1.28891e-05
-2.54124e-06
-1.15864e-05
-4.8996e-06
-9.68492e-06
-7.41645e-06
-7.16491e-06
-1.00279e-05
-4.02522e-06
-1.26545e-05
-2.86113e-07
-1.52038e-05
3.99176e-06
-1.75535e-05
8.70707e-06
-1.95294e-05
1.37493e-05
-2.10424e-05
1.89955e-05
-2.20383e-05
2.43187e-05
-2.24921e-05
2.95954e-05
-2.24087e-05
3.47115e-05
-2.182e-05
3.95672e-05
-2.07792e-05
4.40797e-05
-1.93549e-05
4.81846e-05
-1.76237e-05
5.18355e-05
-1.56654e-05
5.50031e-05
-1.35572e-05
5.76733e-05
-1.1371e-05
5.98451e-05
-9.17094e-06
6.15286e-05
-7.0118e-06
6.27429e-05
-4.93876e-06
6.35137e-05
-2.98729e-06
6.38721e-05
-1.18335e-06
6.38527e-05
4.56254e-07
6.34924e-05
1.9236e-06
6.28292e-05
3.2165e-06
6.19009e-05
4.33602e-06
6.07451e-05
5.28614e-06
5.93979e-05
6.07347e-06
5.7894e-05
6.70673e-06
5.62657e-05
7.19627e-06
5.45434e-05
7.5536e-06
5.27547e-05
7.79096e-06
5.09247e-05
7.92095e-06
4.90758e-05
7.95618e-06
4.72277e-05
7.90902e-06
4.53977e-05
7.79137e-06
4.36004e-05
7.61447e-06
4.18482e-05
7.38879e-06
4.01513e-05
7.12397e-06
3.85179e-05
6.8287e-06
3.69542e-05
6.51079e-06
3.5465e-05
6.17713e-06
3.40534e-05
5.83372e-06
3.27215e-05
5.48574e-06
3.147e-05
5.13758e-06
3.02987e-05
4.7929e-06
2.92068e-05
4.45475e-06
2.81928e-05
4.12554e-06
2.72543e-05
3.80721e-06
2.63891e-05
3.50121e-06
2.5594e-05
3.20861e-06
2.48662e-05
2.93012e-06
2.42023e-05
2.66617e-06
2.35989e-05
2.41692e-06
2.30527e-05
2.18233e-06
2.25604e-05
1.96217e-06
2.21186e-05
1.75608e-06
2.17242e-05
1.56355e-06
2.1374e-05
1.38399e-06
2.1065e-05
1.21672e-06
2.07946e-05
1.06098e-06
2.05601e-05
9.15975e-07
2.03591e-05
7.80859e-07
2.01894e-05
6.54748e-07
2.0049e-05
5.36734e-07
1.9936e-05
4.25882e-07
1.98491e-05
3.21238e-07
1.97868e-05
2.2183e-07
1.9748e-05
1.26668e-07
1.9732e-05
3.47472e-08
1.9738e-05
-5.49432e-08
1.97658e-05
-1.43475e-07
1.98153e-05
-2.32e-07
1.98866e-05
-3.21737e-07
1.99803e-05
-4.13981e-07
2.0097e-05
-5.10134e-07
2.02381e-05
-6.11727e-07
2.0405e-05
-7.20453e-07
2.05996e-05
-8.38209e-07
2.08244e-05
-9.67142e-07
2.10823e-05
-1.10971e-06
2.13768e-05
-1.26877e-06
2.17121e-05
-1.44764e-06
2.20932e-05
-1.65029e-06
2.25261e-05
-1.88143e-06
2.30178e-05
-2.14676e-06
2.35767e-05
-2.45326e-06
2.42127e-05
-2.80951e-06
2.49377e-05
-3.22627e-06
2.5766e-05
-3.71713e-06
2.67147e-05
-4.29958e-06
2.78049e-05
-4.99642e-06
2.90619e-05
-5.83797e-06
3.05164e-05
-6.86532e-06
3.22055e-05
-8.13527e-06
3.41712e-05
-9.72795e-06
3.64576e-05
-1.17581e-05
3.90976e-05
-1.43915e-05
4.20829e-05
-1.78666e-05
4.52967e-05
-2.25173e-05
4.83829e-05
-2.87843e-05
5.0502e-05
-3.71827e-05
4.99546e-05
-4.81419e-05
4.40136e-05
-6.14609e-05
3.04668e-05
-7.49875e-05
1.17642e-05
-8.38546e-05
-7.29198e-06
-8.47462e-05
-2.13791e-05
-7.68417e-05
-2.76027e-05
-6.34823e-05
-2.81697e-05
-4.98879e-05
-2.59097e-05
-3.85035e-05
-2.26128e-05
-2.96789e-05
-1.91789e-05
-2.30485e-05
-1.59977e-05
-1.81149e-05
-1.32001e-05
-1.44314e-05
-1.07969e-05
-1.16486e-05
-8.75199e-06
-9.51109e-06
-7.01669e-06
-7.83822e-06
-5.54399e-06
-6.50313e-06
-4.29343e-06
-5.41626e-06
-3.23183e-06
-4.51363e-06
-2.33261e-06
-3.74895e-06
-1.57473e-06
-3.08861e-06
-9.41691e-07
-2.50856e-06
-4.20269e-07
-1.99224e-06
-1.53055e-06
-1.3e-06
6.37992e-06
-2.82192e-06
7.6178e-06
-4.48433e-06
8.45108e-06
-6.21093e-06
8.89175e-06
-7.92843e-06
8.95153e-06
-9.56563e-06
8.63967e-06
-1.10524e-05
7.96312e-06
-1.23191e-05
6.92705e-06
-1.32964e-05
5.53619e-06
-1.3916e-05
3.79673e-06
-1.4111e-05
1.7186e-06
-1.3818e-05
-6.8225e-07
-1.29789e-05
-3.38037e-06
-1.15441e-05
-6.33435e-06
-9.47622e-06
-9.48433e-06
-6.75374e-06
-1.27504e-05
-3.37533e-06
-1.60329e-05
6.36812e-07
-1.9216e-05
5.20599e-06
-2.21226e-05
1.02235e-05
-2.45469e-05
1.55678e-05
-2.63867e-05
2.1105e-05
-2.75755e-05
2.66983e-05
-2.80853e-05
3.22161e-05
-2.79266e-05
3.75396e-05
-2.71434e-05
4.25668e-05
-2.58065e-05
4.72159e-05
-2.4004e-05
5.14253e-05
-2.18331e-05
5.51529e-05
-1.9393e-05
5.83744e-05
-1.67787e-05
6.1081e-05
-1.40776e-05
6.32765e-05
-1.13664e-05
6.4975e-05
-8.71031e-06
6.61986e-05
-6.16238e-06
6.69754e-05
-3.76401e-06
6.73373e-05
-1.54534e-06
6.73196e-05
4.74022e-07
6.69588e-05
2.2844e-06
6.62926e-05
3.88265e-06
6.53589e-05
5.26974e-06
6.41948e-05
6.4503e-06
6.28361e-05
7.43215e-06
6.13171e-05
8.22568e-06
5.96701e-05
8.84324e-06
5.79251e-05
9.2986e-06
5.61097e-05
9.60643e-06
5.42488e-05
9.78183e-06
5.2365e-05
9.83999e-06
5.04782e-05
9.79579e-06
4.86059e-05
9.66364e-06
4.67632e-05
9.45716e-06
4.49629e-05
9.1891e-06
4.32157e-05
8.87124e-06
4.15301e-05
8.51426e-06
3.99131e-05
8.1278e-06
3.83698e-05
7.72038e-06
3.69041e-05
7.29951e-06
3.55181e-05
6.87166e-06
3.42133e-05
6.44238e-06
3.29899e-05
6.01634e-06
3.18472e-05
5.59741e-06
3.07841e-05
5.18873e-06
2.97984e-05
4.79282e-06
2.88881e-05
4.41159e-06
2.80502e-05
4.04649e-06
2.72818e-05
3.6985e-06
2.65798e-05
3.36823e-06
2.59407e-05
3.05599e-06
2.53612e-05
2.76178e-06
2.4838e-05
2.4854e-06
2.43677e-05
2.22643e-06
2.39469e-05
1.98429e-06
2.35726e-05
1.7583e-06
2.32417e-05
1.54762e-06
2.29513e-05
1.35136e-06
2.26988e-05
1.16853e-06
2.24816e-05
9.98099e-07
2.22973e-05
8.38986e-07
2.2144e-05
6.90065e-07
2.20197e-05
5.50185e-07
2.19228e-05
4.18162e-07
2.18518e-05
2.92791e-07
2.18056e-05
1.72843e-07
2.17833e-05
5.70704e-08
2.17841e-05
-5.57896e-08
2.18077e-05
-1.67058e-07
2.18539e-05
-2.7815e-07
2.19227e-05
-3.90559e-07
2.20146e-05
-5.05875e-07
2.21303e-05
-6.25811e-07
2.22708e-05
-7.52235e-07
2.24375e-05
-8.87199e-07
2.26323e-05
-1.03299e-06
2.28574e-05
-1.1922e-06
2.31154e-05
-1.36775e-06
2.34097e-05
-1.56303e-06
2.3744e-05
-1.78198e-06
2.41229e-05
-2.02924e-06
2.45518e-05
-2.3103e-06
2.50368e-05
-2.63177e-06
2.55852e-05
-3.00164e-06
2.62054e-05
-3.42971e-06
2.69073e-05
-3.92811e-06
2.77021e-05
-4.51199e-06
2.86031e-05
-5.2006e-06
2.96253e-05
-6.01861e-06
3.07855e-05
-6.99811e-06
3.21015e-05
-8.18141e-06
3.35912e-05
-9.62488e-06
3.52675e-05
-1.14043e-05
3.71312e-05
-1.36218e-05
3.91537e-05
-1.6414e-05
4.12463e-05
-1.99591e-05
4.32066e-05
-2.44776e-05
4.46353e-05
-3.0213e-05
4.48232e-05
-3.73706e-05
4.26498e-05
-4.59686e-05
3.67031e-05
-5.55142e-05
2.61891e-05
-6.44735e-05
1.25576e-05
-7.02231e-05
-1.33156e-06
-7.08569e-05
-1.2246e-05
-6.59273e-05
-1.84694e-05
-5.72589e-05
-2.07377e-05
-4.76197e-05
-2.04984e-05
-3.87428e-05
-1.89276e-05
-3.12497e-05
-1.67838e-05
-2.51924e-05
-1.45014e-05
-2.03973e-05
-1.23041e-05
-1.66287e-05
-1.0291e-05
-1.36616e-05
-8.4943e-06
-1.13078e-05
-6.91304e-06
-9.41948e-06
-5.53231e-06
-7.88387e-06
-4.33252e-06
-6.61605e-06
-3.29405e-06
-5.5521e-06
-2.39922e-06
-4.64378e-06
-1.63306e-06
-3.85477e-06
-9.83556e-07
-3.15807e-06
-4.41329e-07
-2.53446e-06
-1.97188e-06
-1.32388e-06
7.7038e-06
-2.87372e-06
9.16765e-06
-4.5643e-06
1.01417e-05
-6.31682e-06
1.06443e-05
-8.05622e-06
1.06909e-05
-9.70973e-06
1.02932e-05
-1.12056e-05
9.45903e-06
-1.24725e-05
8.19389e-06
-1.34388e-05
6.50249e-06
-1.40334e-05
4.39138e-06
-1.41866e-05
1.87176e-06
-1.38312e-05
-1.03763e-06
-1.29055e-05
-4.30613e-06
-1.13558e-05
-7.88399e-06
-9.14101e-06
-1.16991e-05
-6.23668e-06
-1.56547e-05
-2.64063e-06
-1.9629e-05
1.62208e-06
-2.34787e-05
6.45907e-06
-2.69596e-05
1.17545e-05
-2.98423e-05
1.73735e-05
-3.20057e-05
2.31692e-05
-3.33713e-05
2.89931e-05
-3.39092e-05
3.47047e-05
-3.36382e-05
4.01797e-05
-3.26185e-05
4.5315e-05
-3.09418e-05
5.00306e-05
-2.87195e-05
5.42696e-05
-2.60721e-05
5.79966e-05
-2.31199e-05
6.11945e-05
-1.99766e-05
6.38617e-05
-1.67449e-05
6.60089e-05
-1.35137e-05
6.76561e-05
-1.03575e-05
6.88298e-05
-7.33612e-06
6.95614e-05
-4.49561e-06
6.9885e-05
-1.86894e-06
6.98363e-05
5.22767e-07
6.94518e-05
2.66891e-06
6.87688e-05
4.56565e-06
6.78244e-05
6.21411e-06
6.66549e-05
7.61977e-06
6.52953e-05
8.79182e-06
6.37785e-05
9.74242e-06
6.21358e-05
1.04859e-05
6.03961e-05
1.10384e-05
5.85858e-05
1.14167e-05
5.67292e-05
1.16384e-05
5.4848e-05
1.17212e-05
5.29616e-05
1.16821e-05
5.10872e-05
1.15381e-05
4.92395e-05
1.13049e-05
4.74312e-05
1.09974e-05
4.56731e-05
1.06294e-05
4.3974e-05
1.02134e-05
4.23408e-05
9.76095e-06
4.07791e-05
9.28204e-06
3.9293e-05
8.78565e-06
3.78851e-05
8.27954e-06
3.65571e-05
7.77041e-06
3.53095e-05
7.26391e-06
3.41421e-05
6.76479e-06
3.30539e-05
6.27693e-06
3.20433e-05
5.80344e-06
3.11082e-05
5.34674e-06
3.0246e-05
4.90868e-06
2.94539e-05
4.49055e-06
2.8729e-05
4.09319e-06
2.80679e-05
3.71704e-06
2.74675e-05
3.36222e-06
2.69243e-05
3.02854e-06
2.64352e-05
2.71558e-06
2.59967e-05
2.42272e-06
2.56059e-05
2.14914e-06
2.52596e-05
1.89393e-06
2.49549e-05
1.65603e-06
2.46891e-05
1.4343e-06
2.44597e-05
1.22752e-06
2.42643e-05
1.03441e-06
2.41007e-05
8.53648e-07
2.3967e-05
6.83861e-07
2.38616e-05
5.23646e-07
2.37828e-05
3.71566e-07
2.37295e-05
2.26158e-07
2.37006e-05
8.59303e-08
2.36954e-05
-5.06282e-08
2.37135e-05
-1.85084e-07
2.37544e-05
-3.19102e-07
2.38183e-05
-4.54442e-07
2.39054e-05
-5.92976e-07
2.40163e-05
-7.36711e-07
2.41519e-05
-8.87826e-07
2.43134e-05
-1.04871e-06
2.45024e-05
-1.22199e-06
2.47209e-05
-1.41065e-06
2.49711e-05
-1.61803e-06
2.52561e-05
-1.84796e-06
2.5579e-05
-2.10487e-06
2.59437e-05
-2.39394e-06
2.63546e-05
-2.72125e-06
2.68169e-05
-3.09404e-06
2.73362e-05
-3.52101e-06
2.79192e-05
-4.01265e-06
2.85729e-05
-4.58183e-06
2.93053e-05
-5.24439e-06
3.01248e-05
-6.02005e-06
3.10398e-05
-6.93359e-06
3.2058e-05
-8.01638e-06
3.3185e-05
-9.30839e-06
3.44209e-05
-1.08608e-05
3.57554e-05
-1.27389e-05
3.71588e-05
-1.50251e-05
3.85662e-05
-1.78214e-05
3.98542e-05
-2.12472e-05
4.08063e-05
-2.54297e-05
4.10699e-05
-3.04767e-05
4.01184e-05
-3.64191e-05
3.72566e-05
-4.31068e-05
3.17804e-05
-5.0038e-05
2.34746e-05
-5.61678e-05
1.32641e-05
-6.00126e-05
2.88341e-06
-6.04763e-05
-5.70944e-06
-5.73344e-05
-1.14356e-05
-5.15327e-05
-1.44256e-05
-4.46297e-05
-1.53844e-05
-3.7784e-05
-1.50367e-05
-3.15974e-05
-1.39441e-05
-2.6285e-05
-1.24892e-05
-2.18522e-05
-1.09106e-05
-1.82072e-05
-9.34588e-06
-1.52263e-05
-7.86751e-06
-1.27862e-05
-6.50902e-06
-1.0778e-05
-5.2819e-06
-9.11099e-06
-4.18599e-06
-7.71196e-06
-3.2156e-06
-6.52249e-06
-2.36303e-06
-5.49636e-06
-1.6206e-06
-4.5972e-06
-9.81894e-07
-3.79677e-06
-4.42287e-07
-3.07407e-06
-2.41417e-06
-1.32589e-06
9.02969e-06
-2.87907e-06
1.07208e-05
-4.57306e-06
1.18356e-05
-6.32822e-06
1.23994e-05
-8.06886e-06
1.24316e-05
-9.72163e-06
1.1946e-05
-1.1214e-05
1.09514e-05
-1.24731e-05
9.45306e-06
-1.34258e-05
7.45513e-06
-1.39982e-05
4.96379e-06
-1.41172e-05
1.99076e-06
-1.37117e-05
-1.44314e-06
-1.27151e-05
-5.30267e-06
-1.10689e-05
-9.53025e-06
-8.72647e-06
-1.40416e-05
-5.65926e-06
-1.87219e-05
-1.86328e-06
-2.3425e-05
2.63309e-06
-2.79751e-05
7.72266e-06
-3.20492e-05
1.328e-05
-3.53997e-05
1.91556e-05
-3.78813e-05
2.51866e-05
-3.94023e-05
3.12105e-05
-3.99331e-05
3.70765e-05
-3.95041e-05
4.26546e-05
-3.81966e-05
4.78408e-05
-3.6128e-05
5.25586e-05
-3.34374e-05
5.67579e-05
-3.02714e-05
6.04117e-05
-2.67737e-05
6.35127e-05
-2.30776e-05
6.60687e-05
-1.93008e-05
6.8099e-05
-1.5544e-05
6.9631e-05
-1.18894e-05
7.06972e-05
-8.40233e-06
7.13332e-05
-5.1316e-06
7.15758e-05
-2.11154e-06
7.14617e-05
6.36822e-07
7.10277e-05
3.10295e-06
7.03105e-05
5.28281e-06
6.93464e-05
7.17818e-06
6.81704e-05
8.79582e-06
6.68156e-05
1.01466e-05
6.53135e-05
1.12445e-05
6.36932e-05
1.21062e-05
6.19818e-05
1.27498e-05
6.02039e-05
1.31946e-05
5.83822e-05
1.34602e-05
5.65369e-05
1.35665e-05
5.46861e-05
1.35329e-05
5.28459e-05
1.33783e-05
5.10304e-05
1.31204e-05
4.92515e-05
1.27762e-05
4.75197e-05
1.23612e-05
4.58433e-05
1.18898e-05
4.42295e-05
1.13748e-05
4.26836e-05
1.08279e-05
4.12099e-05
1.02593e-05
3.98113e-05
9.67818e-06
3.84896e-05
9.09214e-06
3.72456e-05
8.50788e-06
3.60794e-05
7.93096e-06
3.49904e-05
7.366e-06
3.39771e-05
6.81672e-06
3.30378e-05
6.28607e-06
3.21701e-05
5.7763e-06
3.13717e-05
5.28902e-06
3.06395e-05
4.82533e-06
2.99707e-05
4.38586e-06
2.93621e-05
3.97083e-06
2.88105e-05
3.5801e-06
2.83128e-05
3.21328e-06
2.78659e-05
2.86968e-06
2.74665e-05
2.54846e-06
2.71119e-05
2.24858e-06
2.67991e-05
1.96885e-06
2.65254e-05
1.70799e-06
2.62883e-05
1.46462e-06
2.60854e-05
1.23727e-06
2.59146e-05
1.02442e-06
2.5774e-05
8.24499e-07
2.56618e-05
6.3589e-07
2.55764e-05
4.56939e-07
2.55166e-05
2.85955e-07
2.54813e-05
1.21214e-07
2.54697e-05
-3.90381e-08
2.54812e-05
-1.966e-07
2.55155e-05
-3.53368e-07
2.55724e-05
-5.11352e-07
2.56521e-05
-6.72684e-07
2.5755e-05
-8.3964e-07
2.58819e-05
-1.01468e-06
2.60337e-05
-1.20047e-06
2.62116e-05
-1.39996e-06
2.64174e-05
-1.61644e-06
2.6653e-05
-1.85359e-06
2.69206e-05
-2.11558e-06
2.72229e-05
-2.40721e-06
2.7563e-05
-2.73403e-06
2.79443e-05
-3.10249e-06
2.83704e-05
-3.5202e-06
2.88456e-05
-3.99616e-06
2.93741e-05
-4.54113e-06
2.99603e-05
-5.16807e-06
3.06086e-05
-5.89266e-06
3.13225e-05
-6.734e-06
3.21044e-05
-7.7155e-06
3.2954e-05
-8.86592e-06
3.38662e-05
-1.02206e-05
3.4828e-05
-1.18227e-05
3.58135e-05
-1.37243e-05
3.67754e-05
-1.5987e-05
3.7634e-05
-1.86799e-05
3.8261e-05
-2.18742e-05
3.84616e-05
-2.56302e-05
3.79569e-05
-2.9972e-05
3.63825e-05
-3.48447e-05
3.33258e-05
-4.00501e-05
2.84531e-05
-4.51653e-05
2.17731e-05
-4.94878e-05
1.39068e-05
-5.21463e-05
5.93323e-06
-5.25027e-05
-9.64243e-07
-5.04369e-05
-6.0473e-06
-4.64496e-05
-9.2374e-06
-4.14396e-05
-1.08523e-05
-3.61691e-05
-1.13159e-05
-3.11338e-05
-1.10143e-05
-2.65866e-05
-1.0249e-05
-2.26175e-05
-9.23445e-06
-1.92218e-05
-8.11329e-06
-1.63475e-05
-6.97513e-06
-1.39244e-05
-5.87325e-06
-1.18799e-05
-4.83726e-06
-1.0147e-05
-3.88212e-06
-8.6671e-06
-3.0141e-06
-7.39051e-06
-2.23479e-06
-6.27567e-06
-1.54376e-06
-5.28823e-06
-9.40376e-07
-4.40015e-06
-4.24902e-07
-3.58954e-06
-2.83907e-06
-1.30872e-06
1.03384e-05
-2.84337e-06
1.22555e-05
-4.51854e-06
1.35108e-05
-6.25545e-06
1.41363e-05
-7.97915e-06
1.41553e-05
-9.61671e-06
1.35835e-05
-1.10955e-05
1.24302e-05
-1.2342e-05
1.06996e-05
-1.32813e-05
8.39444e-06
-1.38371e-05
5.51957e-06
-1.39325e-05
2.08613e-06
-1.34916e-05
-1.88397e-06
-1.24424e-05
-6.35193e-06
-1.07194e-05
-1.12532e-05
-8.26953e-06
-1.64914e-05
-5.0581e-06
-2.19333e-05
-1.07771e-06
-2.74053e-05
3.63806e-06
-3.26908e-05
8.96922e-06
-3.73804e-05
1.47784e-05
-4.12088e-05
2.08981e-05
-4.4001e-05
2.71468e-05
-4.5651e-05
3.33449e-05
-4.61312e-05
3.93298e-05
-4.54889e-05
4.49654e-05
-4.38322e-05
5.0148e-05
-4.13106e-05
5.48063e-05
-3.80957e-05
5.8899e-05
-3.43641e-05
6.24102e-05
-3.0285e-05
6.53445e-05
-2.60118e-05
6.77211e-05
-2.16775e-05
6.95699e-05
-1.73927e-05
7.0927e-05
-1.32465e-05
7.18318e-05
-9.30719e-06
7.23251e-05
-5.62483e-06
7.24467e-05
-2.23315e-06
7.22348e-05
8.48695e-07
7.17265e-05
3.61125e-06
7.09582e-05
6.05111e-06
6.9965e-05
8.17141e-06
6.878e-05
9.98074e-06
6.74345e-05
1.14921e-05
6.59574e-05
1.27217e-05
6.43751e-05
1.36885e-05
6.27122e-05
1.44127e-05
6.0991e-05
1.49158e-05
5.92315e-05
1.52197e-05
5.7452e-05
1.5346e-05
5.56687e-05
1.53162e-05
5.38961e-05
1.51509e-05
5.21467e-05
1.48697e-05
5.04318e-05
1.44912e-05
4.87606e-05
1.40324e-05
4.71412e-05
1.35092e-05
4.55801e-05
1.29359e-05
4.40825e-05
1.23255e-05
4.26526e-05
1.16893e-05
4.12931e-05
1.10376e-05
4.00061e-05
1.03791e-05
3.87927e-05
9.7213e-06
3.76531e-05
9.07059e-06
3.65868e-05
8.43225e-06
3.55929e-05
7.81062e-06
3.46699e-05
7.20915e-06
3.38157e-05