/*--------------------------------*- C++ -*----------------------------------*\
| =========                 |                                                 |
| \\      /  F ield         | OpenFOAM: The Open Source CFD Toolbox           |
|  \\    /   O peration     | Version:  2306                                  |
|   \\  /    A nd           | Website:  www.openfoam.com                      |
|    \\/     M anipulation  |                                                 |
\*---------------------------------------------------------------------------*/
FoamFile
{
    version     2.0;
    format      ascii;
    arch        "LSB;label=32;scalar=64";
    class       volVectorField;
    location    "50";
    object      U;
}
// * * * * * * * * * * * * * * * * * * * * * * * * * * * * * * * * * * * * * //

dimensions      [0 1 -1 0 0 0 0];

internalField   nonuniform List<vector> 
4480
(
(-0.000202503 0 0.000202153)
(-0.000425221 0 0.000262747)
(-0.00082879 0 0.000295257)
(-0.00126966 0 0.00031735)
(-0.00172561 0 0.00032598)
(-0.00218184 0 0.000320308)
(-0.00262024 0 0.000300999)
(-0.00302209 0 0.000268686)
(-0.00336938 0 0.000223731)
(-0.00364458 0 0.0001664)
(-0.00383047 0 9.70026e-05)
(-0.0039103 0 1.59687e-05)
(-0.00386826 0 -7.60737e-05)
(-0.00368921 0 -0.000178062)
(-0.00336036 0 -0.000288082)
(-0.00287223 0 -0.000403361)
(-0.00222001 0 -0.000520335)
(-0.00140488 0 -0.000634763)
(-0.000433111 0 -0.000742148)
(0.0006861 0 -0.000836445)
(0.00192064 0 -0.000910189)
(0.00324382 0 -0.000959988)
(0.00462043 0 -0.00098474)
(0.00601472 0 -0.000984461)
(0.007392 0 -0.000960368)
(0.00872011 0 -0.000914757)
(0.00997068 0 -0.000850726)
(0.0111201 0 -0.000771884)
(0.01215 0 -0.000682058)
(0.0130476 0 -0.000585052)
(0.0138052 0 -0.000484451)
(0.0144199 0 -0.000383481)
(0.0148932 0 -0.000284922)
(0.0152302 0 -0.000191069)
(0.0154388 0 -0.000103701)
(0.0155289 0 -2.39981e-05)
(0.0155123 0 4.75153e-05)
(0.0154006 0 0.000110734)
(0.015205 0 0.000165678)
(0.0149374 0 0.000212524)
(0.0146091 0 0.000251557)
(0.0142309 0 0.000283169)
(0.0138128 0 0.000307843)
(0.0133645 0 0.000326129)
(0.0128943 0 0.000338619)
(0.0124102 0 0.000345929)
(0.011919 0 0.000348676)
(0.0114268 0 0.000347469)
(0.0109386 0 0.000342891)
(0.0104589 0 0.000335493)
(0.00999135 0 0.000325786)
(0.0095388 0 0.000314236)
(0.00910357 0 0.000301263)
(0.00868743 0 0.000287239)
(0.00829163 0 0.000272489)
(0.00791698 0 0.000257297)
(0.00756395 0 0.000241901)
(0.00723268 0 0.000226504)
(0.00692305 0 0.000211273)
(0.00663474 0 0.000196343)
(0.00636724 0 0.000181824)
(0.00611991 0 0.000167799)
(0.00589201 0 0.000154331)
(0.00568273 0 0.000141466)
(0.00549118 0 0.000129233)
(0.00531647 0 0.00011765)
(0.00515767 0 0.000106721)
(0.00501386 0 9.64453e-05)
(0.00488412 0 8.68105e-05)
(0.00476757 0 7.78002e-05)
(0.00466333 0 6.93924e-05)
(0.00457057 0 6.15608e-05)
(0.0044885 0 5.42761e-05)
(0.00441637 0 4.7506e-05)
(0.00435347 0 4.12162e-05)
(0.00429915 0 3.53707e-05)
(0.00425281 0 2.99321e-05)
(0.0042139 0 2.48621e-05)
(0.00418193 0 2.01212e-05)
(0.00415645 0 1.56695e-05)
(0.00413709 0 1.14664e-05)
(0.00412353 0 7.4709e-06)
(0.00411549 0 3.64196e-06)
(0.00411277 0 -6.04818e-08)
(0.00411523 0 -3.68175e-06)
(0.00412277 0 -7.26819e-06)
(0.00413538 0 -1.08694e-05)
(0.00415311 0 -1.45378e-05)
(0.0041761 0 -1.83297e-05)
(0.00420456 0 -2.23056e-05)
(0.00423878 0 -2.65329e-05)
(0.00427918 0 -3.10864e-05)
(0.00432627 0 -3.60511e-05)
(0.00438068 0 -4.1524e-05)
(0.0044432 0 -4.76178e-05)
(0.0045148 0 -5.44643e-05)
(0.00459662 0 -6.22196e-05)
(0.00469006 0 -7.10701e-05)
(0.00479681 0 -8.12411e-05)
(0.00491888 0 -9.30069e-05)
(0.00505874 0 -0.000106704)
(0.00521936 0 -0.00012275)
(0.00540435 0 -0.000141664)
(0.00561817 0 -0.000164093)
(0.00586629 0 -0.000190849)
(0.00615548 0 -0.000222941)
(0.00649417 0 -0.000261609)
(0.00689287 0 -0.000308338)
(0.00736464 0 -0.000364832)
(0.00792563 0 -0.000432917)
(0.00859644 0 -0.000514832)
(0.0094056 0 -0.000616154)
(0.0103887 0 -0.000756165)
(0.0115596 0 -0.000987877)
(0.0129438 0 -0.0014532)
(0.0153679 0 -0.00282328)
(0.0229187 0 -0.00870057)
(0.0369536 0 -0.031748)
(0.041349 0 -0.0809133)
(0.0181588 0 -0.101642)
(-0.0113115 0 -0.103447)
(-0.0360925 0 -0.0837721)
(-0.031988 0 -0.0326598)
(-0.0173198 0 -0.00910473)
(-0.00947467 0 -0.00293675)
(-0.00704699 0 -0.0014548)
(-0.00572553 0 -0.000947986)
(-0.00462413 0 -0.000704024)
(-0.00370973 0 -0.000564033)
(-0.00296613 0 -0.000466578)
(-0.00235649 0 -0.000388776)
(-0.00185246 0 -0.000323923)
(-0.00143453 0 -0.000269517)
(-0.00108796 0 -0.000223663)
(-0.000801262 0 -0.000184591)
(-0.000565685 0 -0.000150705)
(-0.000374343 0 -0.000120718)
(-0.000221055 0 -9.40296e-05)
(-0.000102772 0 -7.07414e-05)
(-4.60568e-05 0 -4.63363e-05)
(-0.000264675 0 0.000425315)
(-0.000544752 0 0.000541883)
(-0.00103032 0 0.000618871)
(-0.0015517 0 0.000664263)
(-0.00208777 0 0.000679882)
(-0.00262146 0 0.000666449)
(-0.00313142 0 0.000625024)
(-0.00359563 0 0.000556524)
(-0.00399272 0 0.000461574)
(-0.00430183 0 0.000340697)
(-0.00450255 0 0.000194547)
(-0.00457513 0 2.4084e-05)
(-0.00450109 0 -0.000169373)
(-0.00426323 0 -0.000383439)
(-0.00384737 0 -0.00061398)
(-0.00324337 0 -0.000855124)
(-0.00244651 0 -0.00109938)
(-0.00145909 0 -0.00133807)
(-0.000287686 0 -0.00156237)
(0.00105245 0 -0.00175823)
(0.00252382 0 -0.00191129)
(0.00409511 0 -0.00201533)
(0.00572614 0 -0.0020674)
(0.00737613 0 -0.00206735)
(0.00900553 0 -0.00201763)
(0.0105777 0 -0.00192297)
(0.0120602 0 -0.00178975)
(0.013426 0 -0.00162546)
(0.0146541 0 -0.00143805)
(0.0157294 0 -0.00123541)
(0.0166426 0 -0.00102503)
(0.0173901 0 -0.000813606)
(0.0179728 0 -0.000606953)
(0.0183957 0 -0.000409846)
(0.0186672 0 -0.000226001)
(0.0187981 0 -5.79949e-05)
(0.018801 0 9.29426e-05)
(0.0186895 0 0.000226584)
(0.0184766 0 0.000342946)
(0.0181759 0 0.000442336)
(0.0178005 0 0.000525327)
(0.0173632 0 0.000592727)
(0.016876 0 0.000645531)
(0.01635 0 0.000684874)
(0.0157956 0 0.000711986)
(0.0152221 0 0.000728145)
(0.0146378 0 0.000734643)
(0.0140502 0 0.00073275)
(0.0134657 0 0.000723687)
(0.0128896 0 0.000708612)
(0.0123265 0 0.000688598)
(0.0117801 0 0.000664629)
(0.0112535 0 0.000637589)
(0.0107489 0 0.000608267)
(0.0102679 0 0.000577356)
(0.0098119 0 0.000545455)
(0.00938144 0 0.000513076)
(0.00897687 0 0.00048065)
(0.00859816 0 0.000448535)
(0.00824504 0 0.000417025)
(0.00791697 0 0.000386352)
(0.00761327 0 0.000356699)
(0.0073331 0 0.000328204)
(0.00707553 0 0.000300966)
(0.00683953 0 0.000275052)
(0.00662405 0 0.0002505)
(0.00642799 0 0.000227325)
(0.00625026 0 0.000205523)
(0.00608975 0 0.000185073)
(0.00594541 0 0.00016594)
(0.00581618 0 0.00014808)
(0.00570105 0 0.000131438)
(0.00559906 0 0.000115952)
(0.00550931 0 0.000101556)
(0.00543092 0 8.81773e-05)
(0.00536311 0 7.57401e-05)
(0.00530514 0 6.41659e-05)
(0.00525634 0 5.33736e-05)
(0.0052161 0 4.32803e-05)
(0.00518388 0 3.38016e-05)
(0.00515922 0 2.48517e-05)
(0.00514171 0 1.63438e-05)
(0.00513104 0 8.19041e-06)
(0.00512692 0 3.03826e-07)
(0.00512922 0 -7.40672e-06)
(0.00513778 0 -1.50392e-05)
(0.0051526 0 -2.27004e-05)
(0.00517374 0 -3.05013e-05)
(0.00520135 0 -3.85602e-05)
(0.00523568 0 -4.70058e-05)
(0.0052771 0 -5.59799e-05)
(0.00532609 0 -6.5641e-05)
(0.00538326 0 -7.61683e-05)
(0.00544941 0 -8.77669e-05)
(0.00552546 0 -0.000100674)
(0.00561258 0 -0.000115168)
(0.00571215 0 -0.000131578)
(0.00582587 0 -0.000150298)
(0.00595575 0 -0.000171801)
(0.00610425 0 -0.000196669)
(0.00627429 0 -0.000225613)
(0.00646948 0 -0.00025952)
(0.00669419 0 -0.000299496)
(0.00695379 0 -0.000346944)
(0.00725494 0 -0.000403646)
(0.00760599 0 -0.000471893)
(0.00801754 0 -0.000554655)
(0.00850334 0 -0.00065584)
(0.00908162 0 -0.000780705)
(0.00977756 0 -0.00093664)
(0.0106282 0 -0.00113506)
(0.0116923 0 -0.00139694)
(0.0130651 0 -0.00176793)
(0.0148978 0 -0.00234953)
(0.0174753 0 -0.00336147)
(0.0215465 0 -0.00540451)
(0.0285063 0 -0.0106755)
(0.0360615 0 -0.0258955)
(0.032795 0 -0.0582474)
(0.0151751 0 -0.0759172)
(-0.00795104 0 -0.0771599)
(-0.0265186 0 -0.0603524)
(-0.0299253 0 -0.0269108)
(-0.0220073 0 -0.0110907)
(-0.0147943 0 -0.00553773)
(-0.0106193 0 -0.00336194)
(-0.00801058 0 -0.002289)
(-0.00618312 0 -0.00168384)
(-0.00483759 0 -0.0013075)
(-0.00381333 0 -0.00104764)
(-0.00300841 0 -0.000853317)
(-0.00236071 0 -0.000701237)
(-0.00183196 0 -0.000578969)
(-0.00139694 0 -0.00047859)
(-0.00103811 0 -0.00039448)
(-0.000742933 0 -0.000322454)
(-0.000501918 0 -0.000259415)
(-0.000306612 0 -0.000203234)
(-0.000151173 0 -0.000152076)
(-7.0145e-05 0 -0.000103409)
(-0.000302575 0 0.000833018)
(-0.00063304 0 0.00102975)
(-0.00118806 0 0.00116644)
(-0.00177459 0 0.00124562)
(-0.00237255 0 0.00126977)
(-0.00296387 0 0.00124038)
(-0.00352497 0 0.00115894)
(-0.00403146 0 0.0010267)
(-0.00445955 0 0.000844702)
(-0.00478594 0 0.00061393)
(-0.00498787 0 0.000335721)
(-0.00504344 0 1.2072e-05)
(-0.00493212 0 -0.000354155)
(-0.00463539 0 -0.000757871)
(-0.00413821 0 -0.00119105)
(-0.0034301 0 -0.00164262)
(-0.00250673 0 -0.00209866)
(-0.00137178 0 -0.00254313)
(-3.10368e-05 0 -0.00295914)
(0.001491 0 -0.00331898)
(0.00315499 0 -0.00359923)
(0.00492486 0 -0.00378931)
(0.00675645 0 -0.00388385)
(0.00860532 0 -0.00388261)
(0.0104286 0 -0.00379016)
(0.0121867 0 -0.00361511)
(0.0138448 0 -0.00336913)
(0.0153743 0 -0.00306575)
(0.0167524 0 -0.00271939)
(0.0179632 0 -0.00234436)
(0.0189966 0 -0.00195421)
(0.0198485 0 -0.00156116)
(0.0205196 0 -0.00117582)
(0.0210148 0 -0.000806959)
(0.0213426 0 -0.000461462)
(0.021514 0 -0.000144244)
(0.0215419 0 0.000141941)
(0.021441 0 0.000396182)
(0.0212251 0 0.000618391)
(0.0209091 0 0.00080901)
(0.0205072 0 0.000968995)
(0.0200334 0 0.00109975)
(0.0195009 0 0.00120304)
(0.0189222 0 0.00128091)
(0.0183087 0 0.0013356)
(0.0176711 0 0.00136944)
(0.0170187 0 0.00138482)
(0.0163601 0 0.00138407)
(0.0157024 0 0.0013695)
(0.0150522 0 0.00134325)
(0.0144148 0 0.00130735)
(0.0137945 0 0.00126367)
(0.013195 0 0.00121388)
(0.0126191 0 0.00115949)
(0.0120691 0 0.00110184)
(0.0115463 0 0.00104208)
(0.0110518 0 0.000981202)
(0.0105862 0 0.000920052)
(0.0101495 0 0.000859333)
(0.00974169 0 0.000799622)
(0.00936217 0 0.000741385)
(0.00901029 0 0.000684988)
(0.00868521 0 0.000630711)
(0.00838591 0 0.000578759)
(0.00811132 0 0.000529271)
(0.00786027 0 0.000482335)
(0.00763156 0 0.000437989)
(0.00742396 0 0.000396233)
(0.00723625 0 0.000357036)
(0.00706721 0 0.000320338)
(0.00691567 0 0.000286059)
(0.00678047 0 0.000254098)
(0.00666052 0 0.000224343)
(0.00655478 0 0.000196668)
(0.00646225 0 0.000170937)
(0.00638203 0 0.000147008)
(0.00631327 0 0.000124731)
(0.00625519 0 0.000103954)
(0.00620708 0 8.45188e-05)
(0.00616833 0 6.62647e-05)
(0.00613838 0 4.90284e-05)
(0.00611678 0 3.26441e-05)
(0.00610313 0 1.69438e-05)
(0.00609712 0 1.75789e-06)
(0.00609856 0 -1.30841e-05)
(0.00610729 0 -2.77688e-05)
(0.00612328 0 -4.24986e-05)
(0.00614659 0 -5.74848e-05)
(0.00617737 0 -7.29528e-05)
(0.00621589 0 -8.91477e-05)
(0.00626257 0 -0.000106339)
(0.00631793 0 -0.000124827)
(0.00638265 0 -0.000144953)
(0.00645758 0 -0.000167103)
(0.00654378 0 -0.000191726)
(0.00664252 0 -0.000219348)
(0.00675534 0 -0.000250588)
(0.00688407 0 -0.000286188)
(0.00703096 0 -0.000327041)
(0.00719866 0 -0.000374238)
(0.0073904 0 -0.000429122)
(0.00761007 0 -0.000493363)
(0.00786244 0 -0.000569062)
(0.00815334 0 -0.000658898)
(0.00849 0 -0.000766322)
(0.00888155 0 -0.00089587)
(0.00933963 0 -0.00105363)
(0.00987948 0 -0.001248)
(0.0105216 0 -0.00149108)
(0.0112943 0 -0.00180125)
(0.0122386 0 -0.00220834)
(0.0134153 0 -0.00276473)
(0.0149143 0 -0.00356876)
(0.0168635 0 -0.00480929)
(0.0194398 0 -0.0068456)
(0.0228617 0 -0.0103883)
(0.0270187 0 -0.0169483)
(0.0296322 0 -0.0291611)
(0.0251265 0 -0.0468315)
(0.012362 0 -0.0579048)
(-0.00434679 0 -0.0587203)
(-0.0177782 0 -0.0482435)
(-0.022454 0 -0.0301653)
(-0.0197115 0 -0.0175385)
(-0.0153752 0 -0.0106849)
(-0.0118136 0 -0.00694972)
(-0.0091447 0 -0.00479732)
(-0.00714284 0 -0.00349378)
(-0.00562248 0 -0.00265925)
(-0.00444676 0 -0.00208995)
(-0.0035182 0 -0.00167842)
(-0.002771 0 -0.00136707)
(-0.00216128 0 -0.0011231)
(-0.00165916 0 -0.000926369)
(-0.00124374 0 -0.000763633)
(-0.000900119 0 -0.000625743)
(-0.000617022 0 -0.00050628)
(-0.000384166 0 -0.000400817)
(-0.000193687 0 -0.000306108)
(-8.9389e-05 0 -0.000220547)
(-0.000334391 0 0.00128857)
(-0.000699108 0 0.00156635)
(-0.00130663 0 0.00175952)
(-0.0019427 0 0.0018691)
(-0.00258659 0 0.00189748)
(-0.00321932 0 0.00184662)
(-0.00381565 0 0.00171829)
(-0.00434944 0 0.00151405)
(-0.00479512 0 0.00123523)
(-0.0051276 0 0.00088332)
(-0.00532234 0 0.000460432)
(-0.00535584 0 -3.02474e-05)
(-0.0052059 0 -0.000583968)
(-0.00485313 0 -0.0011926)
(-0.00428169 0 -0.00184387)
(-0.00348077 0 -0.00252121)
(-0.00244638 0 -0.00320389)
(-0.00118331 0 -0.00386789)
(0.000304202 0 -0.00448646)
(0.00197947 0 -0.00501543)
(0.00380418 0 -0.00542484)
(0.00573689 0 -0.00570003)
(0.00772993 0 -0.00583359)
(0.00973571 0 -0.00582569)
(0.0117087 0 -0.00568353)
(0.0136073 0 -0.0054202)
(0.0153955 0 -0.00505304)
(0.0170438 0 -0.00460205)
(0.0185293 0 -0.00408828)
(0.0198359 0 -0.00353258)
(0.020954 0 -0.00295454)
(0.0218797 0 -0.00237184)
(0.0226139 0 -0.00179977)
(0.0231618 0 -0.001251)
(0.0235321 0 -0.000735498)
(0.0237359 0 -0.000260518)
(0.0237863 0 0.000169514)
(0.023698 0 0.000552797)
(0.0234858 0 0.000889014)
(0.0231647 0 0.00117865)
(0.0227498 0 0.00142294)
(0.0222555 0 0.00162384)
(0.021696 0 0.00178381)
(0.0210842 0 0.00190577)
(0.0204326 0 0.00199292)
(0.0197524 0 0.00204864)
(0.0190537 0 0.00207641)
(0.0183458 0 0.00207965)
(0.0176366 0 0.00206173)
(0.0169332 0 0.00202586)
(0.0162415 0 0.00197503)
(0.0155666 0 0.00191204)
(0.0149126 0 0.00183941)
(0.0142828 0 0.00175944)
(0.0136797 0 0.00167413)
(0.0131053 0 0.00158527)
(0.0125607 0 0.00149438)
(0.0120469 0 0.00140277)
(0.0115641 0 0.00131154)
(0.0111123 0 0.00122158)
(0.0106911 0 0.00113365)
(0.0102999 0 0.00104833)
(0.00993796 0 0.000966068)
(0.00960418 0 0.000887203)
(0.00929749 0 0.000811971)
(0.00901667 0 0.000740525)
(0.00876047 0 0.000672943)
(0.00852759 0 0.000609241)
(0.0083167 0 0.000549385)
(0.00812652 0 0.000493298)
(0.00795576 0 0.000440866)
(0.00780318 0 0.000391946)
(0.00766757 0 0.000346372)
(0.00754779 0 0.000303959)
(0.00744277 0 0.000264506)
(0.00735149 0 0.000227799)
(0.00727301 0 0.000193616)
(0.00720648 0 0.000161725)
(0.00715111 0 0.000131888)
(0.0071062 0 0.000103862)
(0.00707114 0 7.74009e-05)
(0.00704541 0 5.22515e-05)
(0.00702857 0 2.81588e-05)
(0.00702027 0 4.8643e-06)
(0.00702025 0 -1.78921e-05)
(0.00702836 0 -4.03903e-05)
(0.00704453 0 -6.29344e-05)
(0.00706881 0 -8.58434e-05)
(0.00710133 0 -0.000109457)
(0.00714239 0 -0.000134146)
(0.00719239 0 -0.000160314)
(0.00725187 0 -0.000188412)
(0.00732154 0 -0.000218949)
(0.00740228 0 -0.000252503)
(0.00749518 0 -0.000289741)
(0.00760155 0 -0.000331443)
(0.00772297 0 -0.000378524)
(0.00786135 0 -0.00043208)
(0.00801894 0 -0.000493426)
(0.00819847 0 -0.000564165)
(0.00840317 0 -0.000646269)
(0.00863697 0 -0.00074219)
(0.00890459 0 -0.000855014)
(0.0092118 0 -0.000988683)
(0.00956568 0 -0.00114831)
(0.00997504 0 -0.00134065)
(0.010451 0 -0.00157486)
(0.0110078 0 -0.00186367)
(0.0116639 0 -0.00222546)
(0.0124438 0 -0.00268776)
(0.0133796 0 -0.0032936)
(0.0145132 0 -0.00411285)
(0.0158948 0 -0.00526217)
(0.0175729 0 -0.00693727)
(0.0195649 0 -0.00945972)
(0.021773 0 -0.0133422)
(0.0237108 0 -0.0193425)
(0.0238284 0 -0.0281687)
(0.0194665 0 -0.0386527)
(0.0102272 0 -0.045542)
(-0.00144884 0 -0.0461206)
(-0.0111775 0 -0.0397276)
(-0.0157109 0 -0.0291356)
(-0.0155865 0 -0.0200395)
(-0.0135501 0 -0.0137768)
(-0.0112238 0 -0.00968595)
(-0.00912655 0 -0.00701607)
(-0.00736723 0 -0.00524532)
(-0.00593015 0 -0.00403775)
(-0.00476366 0 -0.00318444)
(-0.00381297 0 -0.00255879)
(-0.00303213 0 -0.00208417)
(-0.00238577 0 -0.00171306)
(-0.00184748 0 -0.0014149)
(-0.00139763 0 -0.0011693)
(-0.00102167 0 -0.000962166)
(-0.000708259 0 -0.000783665)
(-0.000446553 0 -0.000627018)
(-0.000228118 0 -0.000487622)
(-0.000106052 0 -0.000363569)
(-0.000357678 0 0.0017762)
(-0.000745856 0 0.00213861)
(-0.0013906 0 0.00238765)
(-0.00206172 0 0.00252511)
(-0.0027375 0 0.00255393)
(-0.00339811 0 0.00247659)
(-0.00401706 0 0.00229525)
(-0.00456688 0 0.00201167)
(-0.00502067 0 0.00162749)
(-0.00535197 0 0.00114464)
(-0.00553486 0 0.000566042)
(-0.00554443 0 -0.000103845)
(-0.00535721 0 -0.000858152)
(-0.00495278 0 -0.00168544)
(-0.00431444 0 -0.00256895)
(-0.00343089 0 -0.0034862)
(-0.00229826 0 -0.0044093)
(-0.000921653 0 -0.0053057)
(0.00069546 0 -0.00613595)
(0.00250298 0 -0.00683766)
(0.00446547 0 -0.00737734)
(0.0065354 0 -0.0077357)
(0.00866153 0 -0.00790351)
(0.0107931 0 -0.0078819)
(0.012882 0 -0.00768143)
(0.0148852 0 -0.00732033)
(0.016766 0 -0.00682233)
(0.0184949 0 -0.00621434)
(0.0200499 0 -0.00552439)
(0.0214158 0 -0.00478001)
(0.0225842 0 -0.00400686)
(0.0235523 0 -0.00322796)
(0.0243221 0 -0.00246311)
(0.0248996 0 -0.00172867)
(0.0252939 0 -0.00103753)
(0.0255167 0 -0.000399123)
(0.0255809 0 0.000180504)
(0.0255013 0 0.000698597)
(0.0252929 0 0.00115448)
(0.0249709 0 0.00154861)
(0.0245504 0 0.00188247)
(0.0240462 0 0.00215847)
(0.0234726 0 0.00237976)
(0.022843 0 0.00255009)
(0.02217 0 0.00267359)
(0.0214652 0 0.00275467)
(0.020739 0 0.00279785)
(0.0200011 0 0.00280765)
(0.0192598 0 0.00278851)
(0.0185226 0 0.00274467)
(0.0177958 0 0.00268013)
(0.0170847 0 0.00259862)
(0.016394 0 0.00250355)
(0.0157272 0 0.00239801)
(0.0150872 0 0.00228474)
(0.0144762 0 0.00216616)
(0.0138958 0 0.00204439)
(0.013347 0 0.00192122)
(0.0128303 0 0.00179819)
(0.0123458 0 0.00167657)
(0.0118933 0 0.0015574)
(0.0114723 0 0.00144153)
(0.011082 0 0.0013296)
(0.0107215 0 0.00122211)
(0.0103898 0 0.00111942)
(0.0100855 0 0.00102176)
(0.00980747 0 0.000929268)
(0.00955435 0 0.000841986)
(0.00932479 0 0.000759887)
(0.00911743 0 0.000682885)
(0.00893093 0 0.000610838)
(0.008764 0 0.000543565)
(0.00861537 0 0.00048085)
(0.00848383 0 0.000422448)
(0.00836823 0 0.000368092)
(0.0082675 0 0.000317496)
(0.00818062 0 0.000270361)
(0.00810668 0 0.000226374)
(0.00804484 0 0.000185215)
(0.00799434 0 0.000146553)
(0.00795451 0 0.000110054)
(0.00792478 0 7.53733e-05)
(0.00790466 0 4.21641e-05)
(0.00789377 0 1.00734e-05)
(0.00789182 0 -2.12542e-05)
(0.00789862 0 -5.21968e-05)
(0.00791407 0 -8.3163e-05)
(0.0079382 0 -0.000114583)
(0.00797112 0 -0.000146917)
(0.00801311 0 -0.00018066)
(0.00806455 0 -0.000216357)
(0.00812597 0 -0.000254612)
(0.00819806 0 -0.0002961)
(0.00828168 0 -0.00034159)
(0.0083779 0 -0.000391966)
(0.00848799 0 -0.000448251)
(0.0086135 0 -0.000511651)
(0.00875625 0 -0.000583595)
(0.00891842 0 -0.000665796)
(0.00910259 0 -0.000760334)
(0.00931182 0 -0.000869754)
(0.00954972 0 -0.000997213)
(0.00982065 0 -0.00114667)
(0.0101298 0 -0.00132316)
(0.0104834 0 -0.0015332)
(0.0108889 0 -0.00178534)
(0.0113557 0 -0.00209107)
(0.0118948 0 -0.00246617)
(0.0125198 0 -0.00293282)
(0.0132466 0 -0.00352308)
(0.0140933 0 -0.00428424)
(0.0150772 0 -0.0052872)
(0.0162074 0 -0.00663863)
(0.0174676 0 -0.00849622)
(0.0187807 0 -0.0110824)
(0.0199406 0 -0.014684)
(0.0204746 0 -0.0195951)
(0.0194331 0 -0.0258501)
(0.0155674 0 -0.0324484)
(0.00881445 0 -0.0367857)
(0.000649883 0 -0.0372018)
(-0.00645853 0 -0.0332829)
(-0.0104744 0 -0.0267164)
(-0.0115657 0 -0.0203086)
(-0.0109955 0 -0.0151963)
(-0.00975583 0 -0.0114069)
(-0.00835074 0 -0.008669)
(-0.00700432 0 -0.00669925)
(-0.00580223 0 -0.00526941)
(-0.00476333 0 -0.00421321)
(-0.00387771 0 -0.00341584)
(-0.00312617 0 -0.00279978)
(-0.00248868 0 -0.00231271)
(-0.0019475 0 -0.00191888)
(-0.00148791 0 -0.00159336)
(-0.00109821 0 -0.00131849)
(-0.000768677 0 -0.00108167)
(-0.000489297 0 -0.000874035)
(-0.000252206 0 -0.000689589)
(-0.000118063 0 -0.000525389)
(-0.00037215 0 0.00228844)
(-0.000775212 0 0.00273868)
(-0.00144384 0 0.00304383)
(-0.00213729 0 0.00320752)
(-0.00283301 0 0.00323376)
(-0.00351047 0 0.0031258)
(-0.00414227 0 0.00288619)
(-0.00469995 0 0.00251692)
(-0.00515563 0 0.00201983)
(-0.00548172 0 0.00139727)
(-0.00565107 0 0.0006529)
(-0.00563747 0 -0.000207509)
(-0.00541619 0 -0.00117487)
(-0.00496556 0 -0.00223432)
(-0.00426771 0 -0.00336436)
(-0.00331053 0 -0.00453631)
(-0.00209007 0 -0.00571453)
(-0.000609489 0 -0.00685755)
(0.00112189 0 -0.00790712)
(0.00304838 0 -0.00878607)
(0.00513301 0 -0.00945673)
(0.00732264 0 -0.00989495)
(0.00956184 0 -0.0100901)
(0.0117962 0 -0.0100448)
(0.0139752 0 -0.0097742)
(0.0160542 0 -0.0093026)
(0.0179965 0 -0.00866104)
(0.0197733 0 -0.00788411)
(0.021364 0 -0.00700735)
(0.0227555 0 -0.00606521)
(0.0239415 0 -0.00508949)
(0.0249212 0 -0.00410839)
(0.0256984 0 -0.00314599)
(0.0262805 0 -0.00222207)
(0.0266777 0 -0.00135209)
(0.0269023 0 -0.000547391)
(0.0269676 0 0.000184645)
(0.0268883 0 0.000840422)
(0.0266791 0 0.00141886)
(0.0263555 0 0.00192034)
(0.0259322 0 0.00234659)
(0.0254242 0 0.00270048)
(0.0248453 0 0.00298582)
(0.024209 0 0.00320715)
(0.0235277 0 0.00336954)
(0.0228129 0 0.00347837)
(0.0220752 0 0.0035392)
(0.0213241 0 0.0035576)
(0.0205681 0 0.00353902)
(0.0198147 0 0.00348876)
(0.0190703 0 0.00341178)
(0.0183405 0 0.00331275)
(0.01763 0 0.00319595)
(0.0169426 0 0.00306528)
(0.0162815 0 0.00292421)
(0.015649 0 0.00277585)
(0.0150469 0 0.00262288)
(0.0144764 0 0.00246764)
(0.0139382 0 0.00231212)
(0.0134325 0 0.00215799)
(0.0129594 0 0.00200661)
(0.0125184 0 0.0018591)
(0.0121089 0 0.00171635)
(0.0117299 0 0.00157902)
(0.0113806 0 0.00144762)
(0.0110596 0 0.00132247)
(0.0107659 0 0.00120379)
(0.010498 0 0.00109165)
(0.0102546 0 0.000986067)
(0.0100344 0 0.000886934)
(0.00983603 0 0.000794095)
(0.00965813 0 0.000707335)
(0.00949944 0 0.000626393)
(0.00935869 0 0.000550966)
(0.00923471 0 0.000480724)
(0.00912639 0 0.000415309)
(0.00903267 0 0.000354345)
(0.00895259 0 0.000297437)
(0.00888528 0 0.000244179)
(0.00882993 0 0.000194153)
(0.00878584 0 0.000146933)
(0.00875239 0 0.000102081)
(0.00872907 0 5.91556e-05)
(0.00871545 0 1.77052e-05)
(0.0087112 0 -2.27246e-05)
(0.00871613 0 -6.26125e-05)
(0.00873008 0 -0.000102472)
(0.00875305 0 -0.000142847)
(0.00878514 0 -0.000184315)
(0.00882656 0 -0.0002275)
(0.00887768 0 -0.000273084)
(0.00893897 0 -0.000321818)
(0.00901108 0 -0.000374543)
(0.00909481 0 -0.000432207)
(0.00919113 0 -0.000495897)
(0.00930124 0 -0.000566866)
(0.00942655 0 -0.000646579)
(0.00956873 0 -0.000736766)
(0.00972973 0 -0.000839488)
(0.00991184 0 -0.00095723)
(0.0101178 0 -0.00109302)
(0.0103506 0 -0.00125057)
(0.010614 0 -0.00143453)
(0.0109121 0 -0.00165074)
(0.0112499 0 -0.00190666)
(0.011633 0 -0.00221197)
(0.0120678 0 -0.00257943)
(0.0125614 0 -0.00302609)
(0.013121 0 -0.00357516)
(0.0137534 0 -0.00425858)
(0.0144626 0 -0.00512071)
(0.0152451 0 -0.00622301)
(0.0160814 0 -0.00764927)
(0.0169196 0 -0.00950893)
(0.0176491 0 -0.0119328)
(0.0180609 0 -0.01505)
(0.0177925 0 -0.0189213)
(0.01629 0 -0.0233737)
(0.0129862 0 -0.0276821)
(0.00795823 0 -0.0304649)
(0.00212517 0 -0.0307628)
(-0.00315621 0 -0.0283307)
(-0.00658645 0 -0.0241233)
(-0.0081597 0 -0.019605)
(-0.00843161 0 -0.015596)
(-0.00797494 0 -0.0123262)
(-0.00717517 0 -0.00976327)
(-0.0062589 0 -0.00778916)
(-0.00534779 0 -0.0062742)
(-0.00449956 0 -0.00510526)
(-0.00373613 0 -0.0041932)
(-0.00306128 0 -0.0034712)
(-0.00247052 0 -0.00289026)
(-0.00195626 0 -0.0024146)
(-0.0015104 0 -0.00201799)
(-0.0011255 0 -0.00168108)
(-0.000794697 0 -0.0013896)
(-0.000509832 0 -0.00113317)
(-0.000264481 0 -0.000904552)
(-0.000124381 0 -0.000699542)
(-0.000379041 0 0.00281538)
(-0.000789482 0 0.00335553)
(-0.0014702 0 0.00371695)
(-0.00217481 0 0.00390574)
(-0.00288025 0 0.00392729)
(-0.0035655 0 0.00378575)
(-0.00420256 0 0.00348412)
(-0.00476232 0 0.00302454)
(-0.00521607 0 0.00240897)
(-0.00553526 0 0.00164)
(-0.0056916 0 0.000721924)
(-0.00565749 0 -0.000338275)
(-0.00540678 0 -0.00152933)
(-0.0049162 0 -0.00283297)
(-0.00416628 0 -0.00422283)
(-0.00314365 0 -0.00566364)
(-0.00184399 0 -0.00711137)
(-0.000266814 0 -0.00851452)
(0.00156787 0 -0.00979017)
(0.00360479 0 -0.0108506)
(0.00580131 0 -0.0116516)
(0.00809883 0 -0.0121643)
(0.0104369 0 -0.012377)
(0.0127568 0 -0.0122951)
(0.0150051 0 -0.0119391)
(0.0171361 0 -0.0113412)
(0.0191129 0 -0.0105408)
(0.0209084 0 -0.00958109)
(0.0225042 0 -0.00850588)
(0.0238902 0 -0.00735681)
(0.0250629 0 -0.00617183)
(0.0260244 0 -0.00498418)
(0.0267812 0 -0.00382187)
(0.0273426 0 -0.00270764)
(0.0277206 0 -0.00165909)
(0.0279284 0 -0.00068901)
(0.0279799 0 0.000194331)
(0.0278895 0 0.000986775)
(0.0276723 0 0.00168688)
(0.0273432 0 0.00229502)
(0.0269169 0 0.00281319)
(0.0264077 0 0.00324477)
(0.0258292 0 0.00359426)
(0.0251942 0 0.00386698)
(0.024515 0 0.0040689)
(0.0238024 0 0.00420636)
(0.0230667 0 0.00428588)
(0.022317 0 0.00431404)
(0.0215617 0 0.00429728)
(0.0208079 0 0.00424186)
(0.0200621 0 0.00415368)
(0.0193297 0 0.00403829)
(0.0186154 0 0.00390082)
(0.0179232 0 0.00374594)
(0.0172561 0 0.00357785)
(0.0166166 0 0.0034003)
(0.0160067 0 0.00321659)
(0.0154277 0 0.00302956)
(0.0148804 0 0.00284166)
(0.0143653 0 0.00265498)
(0.0138823 0 0.00247122)
(0.0134314 0 0.00229179)
(0.0130118 0 0.00211782)
(0.0126229 0 0.00195018)
(0.0122637 0 0.0017895)
(0.0119331 0 0.00163626)
(0.01163 0 0.00149074)
(0.0113532 0 0.00135308)
(0.0111012 0 0.00122331)
(0.0108728 0 0.00110134)
(0.0106667 0 0.000987001)
(0.0104815 0 0.000880059)
(0.0103159 0 0.000780207)
(0.0101688 0 0.000687095)
(0.0100389 0 0.000600328)
(0.00992506 0 0.000519483)
(0.00982627 0 0.000444107)
(0.00974153 0 0.000373726)
(0.00966993 0 0.00030785)
(0.00961066 0 0.000245973)
(0.00956299 0 0.000187578)
(0.00952628 0 0.000132134)
(0.00949997 0 7.91035e-05)
(0.00948363 0 2.79374e-05)
(0.00947687 0 -2.19194e-05)
(0.0094795 0 -7.10454e-05)
(0.0094913 0 -0.000120058)
(0.00951226 0 -0.000169609)
(0.00954241 0 -0.000220392)
(0.00958194 0 -0.000273155)
(0.00963113 0 -0.000328709)
(0.00969042 0 -0.000387945)
(0.00976034 0 -0.000451854)
(0.00984162 0 -0.000521549)
(0.00993511 0 -0.000598297)
(0.0100419 0 -0.00068355)
(0.0101631 0 -0.000778994)
(0.0103002 0 -0.000886605)
(0.0104548 0 -0.00100872)
(0.010629 0 -0.00114814)
(0.0108247 0 -0.00130824)
(0.0110445 0 -0.00149311)
(0.0112911 0 -0.00170784)
(0.0115675 0 -0.00195869)
(0.011877 0 -0.00225359)
(0.0122231 0 -0.00260258)
(0.0126091 0 -0.00301858)
(0.0130379 0 -0.00351833)
(0.0135109 0 -0.00412369)
(0.0140268 0 -0.00486328)
(0.0145788 0 -0.00577436)
(0.0151497 0 -0.00690464)
(0.0157048 0 -0.00831288)
(0.0161798 0 -0.010066)
(0.0164652 0 -0.0122287)
(0.0163881 0 -0.0148376)
(0.0156983 0 -0.0178517)
(0.0140848 0 -0.0210608)
(0.0113028 0 -0.0239649)
(0.0074701 0 -0.0257994)
(0.00316226 0 -0.0260119)
(-0.000824655 0 -0.0244806)
(-0.00372425 0 -0.0217034)
(-0.00541043 0 -0.018487)
(-0.00612528 0 -0.0153891)
(-0.00618346 0 -0.0126654)
(-0.00584931 0 -0.0103848)
(-0.00530977 0 -0.00852481)
(-0.00468499 0 -0.00702641)
(-0.00404626 0 -0.0058227)
(-0.00343256 0 -0.00485234)
(-0.00286302 0 -0.00406401)
(-0.00234535 0 -0.00341666)
(-0.001881 0 -0.00287819)
(-0.00146838 0 -0.00242371)
(-0.00110472 0 -0.00203401)
(-0.000786501 0 -0.00169431)
(-0.000508031 0 -0.00139341)
(-0.000264853 0 -0.00112316)
(-0.000124968 0 -0.000878109)
(-0.000379545 0 0.00334732)
(-0.000790757 0 0.0039784)
(-0.00147309 0 0.00439618)
(-0.00217897 0 0.00460946)
(-0.00288523 0 0.00462522)
(-0.00357067 0 0.00444857)
(-0.00420698 0 0.00408289)
(-0.00476465 0 0.00353037)
(-0.00521436 0 0.00279286)
(-0.00552666 0 0.00187299)
(-0.0056721 0 0.000775437)
(-0.00562152 0 -0.000491813)
(-0.0053471 0 -0.00191549)
(-0.00482354 0 -0.00347408)
(-0.00402919 0 -0.00513627)
(-0.00294892 0 -0.00685987)
(-0.00157757 0 -0.00859153)
(8.97797e-05 0 -0.0102679)
(0.00202083 0 -0.0117769)
(0.00416236 0 -0.0130226)
(0.00646419 0 -0.0139522)
(0.00886153 0 -0.0145318)
(0.0112878 0 -0.0147494)
(0.0136794 0 -0.0146144)
(0.0159796 0 -0.0141546)
(0.0181412 0 -0.0134112)
(0.0201281 0 -0.0124339)
(0.0219153 0 -0.0112757)
(0.0234877 0 -0.00998931)
(0.0248388 0 -0.00862393)
(0.0259689 0 -0.00722369)
(0.0268841 0 -0.00582658)
(0.0275937 0 -0.00446412)
(0.0281101 0 -0.00316145)
(0.0284471 0 -0.00193774)
(0.0286194 0 -0.000806627)
(0.0286417 0 0.000223308)
(0.0285283 0 0.00114773)
(0.0282944 0 0.00196498)
(0.0279546 0 0.00267558)
(0.0275232 0 0.00328193)
(0.0270138 0 0.00378801)
(0.0264394 0 0.00419902)
(0.0258121 0 0.00452115)
(0.0251431 0 0.00476121)
(0.0244428 0 0.00492646)
(0.0237207 0 0.00502438)
(0.0229854 0 0.00506244)
(0.0222444 0 0.00504802)
(0.0215047 0 0.00498824)
(0.0207722 0 0.00488988)
(0.0200522 0 0.0047593)
(0.0193491 0 0.0046024)
(0.0186667 0 0.00442457)
(0.018008 0 0.0042307)
(0.0173756 0 0.00402515)
(0.0167713 0 0.00381178)
(0.0161966 0 0.00359394)
(0.0156524 0 0.00337454)
(0.0151392 0 0.00315604)
(0.0146572 0 0.00294052)
(0.0142063 0 0.00272966)
(0.013786 0 0.00252485)
(0.0133957 0 0.00232715)
(0.0130345 0 0.00213738)
(0.0127016 0 0.00195612)
(0.0123958 0 0.00178376)
(0.0121159 0 0.00162051)
(0.0118607 0 0.00146643)
(0.011629 0 0.00132146)
(0.0114195 0 0.00118543)
(0.0112308 0 0.00105808)
(0.0110619 0 0.000939077)
(0.0109114 0 0.000828022)
(0.0107782 0 0.000724471)
(0.0106611 0 0.000627933)
(0.0105592 0 0.000537887)
(0.0104714 0 0.000453784)
(0.0103969 0 0.000375052)
(0.0103348 0 0.000301101)
(0.0102844 0 0.000231326)
(0.010245 0 0.000165108)
(0.0102161 0 0.000101814)
(0.0101972 0 4.07994e-05)
(0.0101879 0 -1.85891e-05)
(0.0101879 0 -7.70264e-05)
(0.0101971 0 -0.000135227)
(0.0102153 0 -0.000193946)
(0.0102426 0 -0.000253988)
(0.0102791 0 -0.000316212)
(0.010325 0 -0.000381548)
(0.0103806 0 -0.000451013)
(0.0104464 0 -0.000525732)
(0.010523 0 -0.000606957)
(0.010611 0 -0.000696105)
(0.0107114 0 -0.00079479)
(0.0108251 0 -0.00090487)
(0.0109533 0 -0.0010285)
(0.0110972 0 -0.00116822)
(0.0112583 0 -0.00132702)
(0.0114381 0 -0.00150847)
(0.0116384 0 -0.00171688)
(0.011861 0 -0.00195746)
(0.0121075 0 -0.0022366)
(0.0123796 0 -0.00256216)
(0.0126787 0 -0.00294388)
(0.0130052 0 -0.00339396)
(0.0133584 0 -0.00392761)
(0.013735 0 -0.00456386)
(0.014128 0 -0.00532632)
(0.0145235 0 -0.00624369)
(0.0148975 0 -0.0073497)
(0.0152101 0 -0.00868129)
(0.0153985 0 -0.0102735)