/*--------------------------------*- C++ -*----------------------------------*\
| =========                 |                                                 |
| \\      /  F ield         | OpenFOAM: The Open Source CFD Toolbox           |
|  \\    /   O peration     | Version:  2306                                  |
|   \\  /    A nd           | Website:  www.openfoam.com                      |
|    \\/     M anipulation  |                                                 |
\*---------------------------------------------------------------------------*/
FoamFile
{
    version     2.0;
    format      ascii;
    arch        "LSB;label=32;scalar=64";
    class       volVectorField;
    location    "50";
    object      UMean;
}
// * * * * * * * * * * * * * * * * * * * * * * * * * * * * * * * * * * * * * //

dimensions      [0 1 -1 0 0 0 0];

internalField   nonuniform List<vector> 
4480
(
(-0.000197346 0 0.000196977)
(-0.00041446 0 0.000256019)
(-0.000807791 0 0.000287661)
(-0.0012374 0 0.000309113)
(-0.00168158 0 0.000317402)
(-0.00212584 0 0.000311706)
(-0.00255245 0 0.000292668)
(-0.0029431 0 0.000260901)
(-0.00328014 0 0.000216754)
(-0.0035464 0 0.000160485)
(-0.00372503 0 9.23976e-05)
(-0.0037996 0 1.29227e-05)
(-0.00375468 0 -7.73047e-05)
(-0.00357544 0 -0.000177226)
(-0.00324946 0 -0.000284944)
(-0.00276757 0 -0.00039772)
(-0.00212521 0 -0.000512041)
(-0.0013237 0 -0.000623719)
(-0.000368997 0 -0.000728405)
(0.000728746 0 -0.000820017)
(0.00193875 0 -0.000891406)
(0.00323437 0 -0.000939305)
(0.00458104 0 -0.000962601)
(0.00594363 0 -0.000961295)
(0.00728803 0 -0.000936588)
(0.00858264 0 -0.000890747)
(0.00979958 0 -0.000826841)
(0.0109157 0 -0.000748442)
(0.0119132 0 -0.000659343)
(0.0127794 0 -0.000563316)
(0.0135071 0 -0.000463912)
(0.0140937 0 -0.000364326)
(0.0145411 0 -0.000267309)
(0.0148543 0 -0.000175122)
(0.0150415 0 -8.95047e-05)
(0.0151126 0 -1.15804e-05)
(0.0150797 0 5.815e-05)
(0.014954 0 0.000119599)
(0.014747 0 0.000172783)
(0.0144705 0 0.000217866)
(0.0141357 0 0.000255132)
(0.0137535 0 0.000284988)
(0.013334 0 0.000307932)
(0.0128866 0 0.000324528)
(0.0124198 0 0.000335387)
(0.0119413 0 0.000341139)
(0.0114578 0 0.000342416)
(0.0109753 0 0.000339839)
(0.0104987 0 0.000334)
(0.0100323 0 0.00032546)
(0.0095796 0 0.000314734)
(0.00914325 0 0.000302291)
(0.00872542 0 0.000288552)
(0.00832766 0 0.00027389)
(0.00795106 0 0.000258629)
(0.00759627 0 0.000243046)
(0.00726356 0 0.000227379)
(0.00695292 0 0.000211823)
(0.00666408 0 0.000196541)
(0.00639656 0 0.00018166)
(0.00614972 0 0.000167283)
(0.00592279 0 0.000153486)
(0.00571492 0 0.000140324)
(0.00552518 0 0.000127835)
(0.00535261 0 0.00011604)
(0.00519622 0 0.000104947)
(0.00505502 0 9.45536e-05)
(0.00492802 0 8.48491e-05)
(0.00481428 0 7.58143e-05)
(0.00471285 0 6.74244e-05)
(0.00462286 0 5.96498e-05)
(0.00454344 0 5.24575e-05)
(0.00447381 0 4.58113e-05)
(0.00441323 0 3.96732e-05)
(0.00436099 0 3.40035e-05)
(0.00431646 0 2.87614e-05)
(0.00427908 0 2.39055e-05)
(0.00424831 0 1.9394e-05)
(0.00422372 0 1.5185e-05)
(0.00420488 0 1.12363e-05)
(0.00419148 0 7.50617e-06)
(0.00418322 0 3.95318e-06)
(0.00417988 0 5.37094e-07)
(0.0041813 0 -2.78408e-06)
(0.00418738 0 -6.05584e-06)
(0.00419806 0 -9.32487e-06)
(0.00421339 0 -1.26392e-05)
(0.00423345 0 -1.60496e-05)
(0.00425843 0 -1.96109e-05)
(0.00428856 0 -2.33823e-05)
(0.00432419 0 -2.74295e-05)
(0.00436576 0 -3.1826e-05)
(0.0044138 0 -3.66551e-05)
(0.00446898 0 -4.20122e-05)
(0.00453213 0 -4.80084e-05)
(0.00460422 0 -5.47738e-05)
(0.00468644 0 -6.2463e-05)
(0.00478019 0 -7.12613e-05)
(0.00488717 0 -8.13924e-05)
(0.00500944 0 -9.31295e-05)
(0.00514945 0 -0.000106808)
(0.00531019 0 -0.000122845)
(0.00549531 0 -0.000141758)
(0.00570926 0 -0.000164195)
(0.00595751 0 -0.000190968)
(0.00624686 0 -0.000223085)
(0.00658576 0 -0.000261788)
(0.00698471 0 -0.000308564)
(0.0074568 0 -0.000365119)
(0.00801818 0 -0.000433283)
(0.00868949 0 -0.000515295)
(0.00949926 0 -0.00061672)
(0.0104831 0 -0.000756795)
(0.0116548 0 -0.000988419)
(0.0130398 0 -0.00145327)
(0.0154638 0 -0.0028219)
(0.0230106 0 -0.00869529)
(0.0370375 0 -0.0317375)
(0.0414362 0 -0.0808803)
(0.0182582 0 -0.101618)
(-0.0112041 0 -0.103468)
(-0.0360173 0 -0.0838058)
(-0.0319205 0 -0.0326659)
(-0.0172509 0 -0.00910468)
(-0.00940945 0 -0.00293327)
(-0.00698849 0 -0.00145016)
(-0.00567401 0 -0.000943142)
(-0.00457922 0 -0.000699365)
(-0.00367098 0 -0.000559705)
(-0.00293309 0 -0.000462615)
(-0.00232867 0 -0.000385172)
(-0.00182938 0 -0.000320661)
(-0.00141575 0 -0.000266583)
(-0.00107304 0 -0.000221043)
(-0.000789779 0 -0.000182276)
(-0.000557224 0 -0.000148689)
(-0.000368498 0 -0.000118999)
(-0.000217444 0 -9.26007e-05)
(-0.000101005 0 -6.95854e-05)
(-4.52387e-05 0 -4.55084e-05)
(-0.000257955 0 0.000414523)
(-0.000531019 0 0.000528156)
(-0.00100438 0 0.000603132)
(-0.00151257 0 0.000647225)
(-0.00203496 0 0.000662208)
(-0.00255482 0 0.000648774)
(-0.00305126 0 0.000607946)
(-0.00350271 0 0.000540608)
(-0.00388824 0 0.000447363)
(-0.00418742 0 0.000328721)
(-0.00438025 0 0.000185325)
(-0.00444739 0 1.81321e-05)
(-0.00437075 0 -0.000171539)
(-0.00413351 0 -0.000381303)
(-0.00372188 0 -0.000607066)
(-0.00312599 0 -0.000843038)
(-0.00234139 0 -0.00108184)
(-0.0013705 0 -0.00131492)
(-0.000219537 0 -0.00153366)
(0.00109517 0 -0.00172404)
(0.00253781 0 -0.00187236)
(0.00407709 0 -0.00197249)
(0.00567351 0 -0.00202154)
(0.00728694 0 -0.00201933)
(0.00887843 0 -0.00196828)
(0.0104119 0 -0.00187307)
(0.0118555 0 -0.00174003)
(0.0131827 0 -0.00157657)
(0.0143729 0 -0.00139057)
(0.0154114 0 -0.00118988)
(0.0162894 0 -0.000981893)
(0.0170034 0 -0.000773276)
(0.0175548 0 -0.000569763)
(0.0179489 0 -0.000376067)
(0.0181942 0 -0.000195829)
(0.0183015 0 -3.15336e-05)
(0.0182839 0 0.000115692)
(0.0181545 0 0.000245651)
(0.0179267 0 0.000358321)
(0.0176141 0 0.000453996)
(0.0172298 0 0.000533263)
(0.0167866 0 0.000596954)
(0.0162965 0 0.000646097)
(0.0157705 0 0.000681862)
(0.015219 0 0.000705513)
(0.0146512 0 0.000718362)
(0.0140754 0 0.000721731)
(0.0134987 0 0.000716915)
(0.0129274 0 0.00070516)
(0.0123668 0 0.000687639)
(0.0118211 0 0.000665439)
(0.0112939 0 0.000639549)
(0.010788 0 0.00061086)
(0.0103054 0 0.000580159)
(0.00984762 0 0.000548136)
(0.00941557 0 0.000515383)
(0.00900974 0 0.000482404)
(0.00863025 0 0.000449619)
(0.00827688 0 0.000417375)
(0.00794915 0 0.000385949)
(0.00764636 0 0.00035556)
(0.00736766 0 0.000326375)
(0.00711206 0 0.000298515)
(0.0068785 0 0.000272061)
(0.00666584 0 0.000247062)
(0.00647291 0 0.00022354)
(0.00629853 0 0.00020149)
(0.00614154 0 0.000180892)
(0.00600077 0 0.000161706)
(0.00587511 0 0.000143883)
(0.00576347 0 0.00012736)
(0.00566485 0 0.000112069)
(0.00557826 0 9.79339e-05)
(0.00550279 0 8.48751e-05)
(0.00543761 0 7.28092e-05)
(0.00538195 0 6.16503e-05)
(0.00533509 0 5.13113e-05)
(0.00529641 0 4.17038e-05)
(0.00526534 0 3.27393e-05)
(0.00524139 0 2.43289e-05)
(0.00522414 0 1.6384e-05)
(0.00521325 0 8.81653e-06)
(0.00520843 0 1.53996e-06)
(0.0052095 0 -5.53382e-06)
(0.00521632 0 -1.24991e-05)
(0.00522883 0 -1.9455e-05)
(0.00524706 0 -2.65038e-05)
(0.00527112 0 -3.37533e-05)
(0.00530122 0 -4.13188e-05)
(0.00533766 0 -4.93262e-05)
(0.00538084 0 -5.79141e-05)
(0.00543129 0 -6.72377e-05)
(0.00548967 0 -7.74729e-05)
(0.00555678 0 -8.88213e-05)
(0.0056336 0 -0.000101517)
(0.00572133 0 -0.000115834)
(0.00582137 0 -0.0001321)
(0.00593544 0 -0.000150703)
(0.00606559 0 -0.000172117)
(0.00621426 0 -0.000196918)
(0.00638444 0 -0.000225818)
(0.00657972 0 -0.000259698)
(0.00680448 0 -0.000299666)
(0.00706412 0 -0.000347122)
(0.0073653 0 -0.000403848)
(0.00771639 0 -0.000472135)
(0.00812798 0 -0.000554954)
(0.00861383 0 -0.000656212)
(0.00919217 0 -0.000781169)
(0.00988818 0 -0.000937214)
(0.0107389 0 -0.00113575)
(0.0118029 0 -0.00139773)
(0.0131756 0 -0.00176874)
(0.0150079 0 -0.00235012)
(0.0175844 0 -0.00336132)
(0.0216535 0 -0.00540261)
(0.0286091 0 -0.0106697)
(0.0361584 0 -0.0258815)
(0.0328921 0 -0.0582194)
(0.0152764 0 -0.0758976)
(-0.00784557 0 -0.0771686)
(-0.0264359 0 -0.0603702)
(-0.029849 0 -0.0269135)
(-0.0219328 0 -0.0110857)
(-0.0147239 0 -0.0055295)
(-0.0105548 0 -0.0033525)
(-0.00795257 0 -0.00227939)
(-0.00613169 0 -0.00167456)
(-0.00479264 0 -0.00129879)
(-0.00377458 0 -0.00103958)
(-0.00297548 0 -0.000845932)
(-0.00233319 0 -0.000694516)
(-0.0018094 0 -0.000572896)
(-0.00137887 0 -0.000473149)
(-0.00102408 0 -0.000389657)
(-0.000732474 0 -0.000318238)
(-0.000494583 0 -0.000255802)
(-0.000301971 0 -0.000200221)
(-0.000148808 0 -0.000149667)
(-6.90222e-05 0 -0.00010164)
(-0.000295059 0 0.000811978)
(-0.000617429 0 0.00100383)
(-0.00115885 0 0.00113699)
(-0.00173098 0 0.00121394)
(-0.00231415 0 0.00123706)
(-0.00289064 0 0.00120781)
(-0.00343739 0 0.0011276)
(-0.0039305 0 0.00099766)
(-0.00434665 0 0.000818968)
(-0.004663 0 0.000592495)
(-0.00485724 0 0.000319554)
(-0.00490791 0 2.12018e-06)
(-0.00479484 0 -0.00035695)
(-0.00449997 0 -0.000752598)
(-0.00400856 0 -0.00117689)
(-0.00331041 0 -0.00161892)
(-0.00240138 0 -0.00206498)
(-0.00128526 0 -0.00249925)
(3.25399e-05 0 -0.00290512)
(0.00152657 0 -0.00325516)
(0.00315931 0 -0.00352697)
(0.00489469 0 -0.00371008)
(0.00668921 0 -0.00379917)
(0.00849905 0 -0.00379398)
(0.0102819 0 -0.00369902)
(0.0119987 0 -0.00352282)
(0.0136153 0 -0.00327695)
(0.0151032 0 -0.00297484)
(0.0164404 0 -0.00263079)
(0.0176112 0 -0.00225902)
(0.0186059 0 -0.00187297)
(0.0194208 0 -0.00148478)
(0.0200568 0 -0.00110495)
(0.0205192 0 -0.000742136)
(0.0208168 0 -0.000403115)
(0.0209606 0 -9.26511e-05)
(0.0209641 0 0.000186688)
(0.0208415 0 0.000434067)
(0.0206072 0 0.00064934)
(0.020276 0 0.000832945)
(0.0198622 0 0.000985866)
(0.0193799 0 0.00110956)
(0.0188423 0 0.00120585)
(0.0182618 0 0.00127685)
(0.0176499 0 0.00132486)
(0.0170171 0 0.00135229)
(0.0163727 0 0.00136157)
(0.0157251 0 0.00135513)
(0.0150813 0 0.00133527)
(0.0144476 0 0.0013042)
(0.013829 0 0.00126398)
(0.0132298 0 0.00121648)
(0.0126533 0 0.0011634)
(0.0121021 0 0.00110624)
(0.011578 0 0.00104633)
(0.0110824 0 0.000984825)
(0.010616 0 0.000922695)
(0.0101791 0 0.000860764)
(0.00977149 0 0.000799713)
(0.00939287 0 0.000740093)
(0.00904252 0 0.000682339)
(0.00871957 0 0.000626787)
(0.00842297 0 0.000573683)
(0.00815157 0 0.000523199)
(0.00790412 0 0.000475439)
(0.00767934 0 0.000430454)
(0.00747592 0 0.000388249)
(0.00729253 0 0.00034879)
(0.00712788 0 0.000312009)
(0.00698071 0 0.000277816)
(0.00684977 0 0.000246098)
(0.00673392 0 0.000216728)
(0.00663203 0 0.000189564)
(0.00654307 0 0.000164457)
(0.00646607 0 0.000141248)
(0.00640014 0 0.000119776)
(0.00634446 0 9.9875e-05)
(0.0062983 0 8.1378e-05)
(0.00626101 0 6.41161e-05)
(0.00623202 0 4.79201e-05)
(0.00621084 0 3.26209e-05)
(0.00619705 0 1.80499e-05)
(0.00619035 0 4.03981e-06)
(0.00619048 0 -9.57763e-06)
(0.0061973 0 -2.29798e-05)
(0.00621072 0 -3.63546e-05)
(0.00623076 0 -4.98972e-05)
(0.00625755 0 -6.38132e-05)
(0.00629129 0 -7.83226e-05)
(0.00633233 0 -9.36646e-05)
(0.0063811 0 -0.000110103)
(0.00643819 0 -0.000127931)
(0.00650433 0 -0.000147483)
(0.0065804 0 -0.00016914)
(0.0066675 0 -0.000193344)
(0.00676692 0 -0.000220612)
(0.00688025 0 -0.00025156)
(0.00700935 0 -0.000286921)
(0.00715647 0 -0.000327584)
(0.0073243 0 -0.000374634)
(0.00751608 0 -0.000429408)
(0.00773572 0 -0.000493574)
(0.007988 0 -0.000569229)
(0.00827875 0 -0.000659046)
(0.00861522 0 -0.000766475)
(0.00900653 0 -0.000896048)
(0.00946432 0 -0.00105385)
(0.0100038 0 -0.00124827)
(0.0106455 0 -0.00149141)
(0.0114177 0 -0.00180163)
(0.0123613 0 -0.00220871)
(0.013537 0 -0.00276498)
(0.0150347 0 -0.00356865)
(0.0169821 0 -0.00480836)
(0.0195559 0 -0.00684306)
(0.0229743 0 -0.010383)
(0.0271271 0 -0.0169387)
(0.0297366 0 -0.0291454)
(0.0252308 0 -0.0468093)
(0.0124672 0 -0.0578874)
(-0.00424049 0 -0.0587189)
(-0.01769 0 -0.0482461)
(-0.0223731 0 -0.0301611)
(-0.0196353 0 -0.0175285)
(-0.0153037 0 -0.0106713)
(-0.0117475 0 -0.00693423)
(-0.00908435 0 -0.00478115)
(-0.00708862 0 -0.00347777)
(-0.00557451 0 -0.00264389)
(-0.00440495 0 -0.0020755)
(-0.00348233 0 -0.00166501)
(-0.00274075 0 -0.00135475)
(-0.00213627 0 -0.00111189)
(-0.00163897 0 -0.000916264)
(-0.00122792 0 -0.000754629)
(-0.000888219 0 -0.000617832)
(-0.000608585 0 -0.000499457)
(-0.000378759 0 -0.00039508)
(-0.000190894 0 -0.000301461)
(-8.80801e-05 0 -0.000217)
(-0.000326434 0 0.00125643)
(-0.000682601 0 0.00152747)
(-0.00127592 0 0.00171578)
(-0.00189714 0 0.00182233)
(-0.00252593 0 0.00184946)
(-0.00314369 0 0.00179903)
(-0.0037257 0 0.00167277)
(-0.00424632 0 0.00147214)
(-0.00468048 0 0.00119844)
(-0.00500355 0 0.000853113)
(-0.00519145 0 0.000438218)
(-0.00522109 0 -4.3095e-05)
(-0.00507072 0 -0.000586102)
(-0.00472124 0 -0.00118275)
(-0.00415715 0 -0.00182094)
(-0.00336784 0 -0.00248433)
(-0.00234946 0 -0.00315249)
(-0.00110685 0 -0.00380175)
(0.000356047 0 -0.0044057)
(0.00200201 0 -0.00492081)
(0.00379441 0 -0.00531837)
(0.00569182 0 -0.00558379)
(0.0076472 0 -0.00570968)
(0.00961347 0 -0.00569615)
(0.0115456 0 -0.00555035)
(0.0134025 0 -0.00528523)
(0.0151486 0 -0.00491801)
(0.0167547 0 -0.00446854)
(0.0181982 0 -0.00395772)
(0.0194636 0 -0.00340629)
(0.0205415 0 -0.00283373)
(0.0214282 0 -0.00225759)
(0.0221251 0 -0.00169304)
(0.0226377 0 -0.00115264)
(0.0229748 0 -0.000646209)
(0.023148 0 -0.000180809)
(0.0231706 0 0.000239371)
(0.0230574 0 0.000612654)
(0.0228234 0 0.000938665)
(0.0224838 0 0.00121789)
(0.0220538 0 0.00145164)
(0.0215481 0 0.00164191)
(0.0209807 0 0.00179128)
(0.0203648 0 0.00190277)
(0.0197127 0 0.0019797)
(0.0190356 0 0.00202555)
(0.0183436 0 0.00204389)
(0.0176458 0 0.00203825)
(0.01695 0 0.00201206)
(0.0162631 0 0.00196859)
(0.0155907 0 0.00191091)
(0.0149377 0 0.00184184)
(0.0143079 0 0.00176392)
(0.0137042 0 0.00167946)
(0.013129 0 0.00159046)
(0.0125839 0 0.0014987)
(0.0120698 0 0.00140569)
(0.0115873 0 0.00131269)
(0.0111364 0 0.00122077)
(0.0107168 0 0.00113081)
(0.0103278 0 0.00104348)
(0.00996873 0 0.000959335)
(0.00963841 0 0.000878768)
(0.0093357 0 0.000802065)
(0.0090593 0 0.000729408)
(0.00880786 0 0.000660893)
(0.00857998 0 0.000596543)
(0.00837426 0 0.00053632)
(0.00818928 0 0.000480137)
(0.00802368 0 0.000427865)
(0.00787613 0 0.000379341)
(0.00774535 0 0.000334379)
(0.00763012 0 0.000292769)
(0.00752931 0 0.000254288)
(0.00744184 0 0.0002187)
(0.00736674 0 0.000185763)
(0.00730309 0 0.000155227)
(0.00725009 0 0.000126838)
(0.007207 0 0.000100342)
(0.00717319 0 7.5483e-05)
(0.0071481 0 5.20034e-05)
(0.00713129 0 2.96468e-05)
(0.00712237 0 8.15763e-06)
(0.00712107 0 -1.27205e-05)
(0.00712721 0 -3.3254e-05)
(0.00714069 0 -5.37253e-05)
(0.0071615 0 -7.44299e-05)
(0.00718977 0 -9.56783e-05)
(0.0072257 0 -0.000117803)
(0.00726963 0 -0.000141163)
(0.00732203 0 -0.000166156)
(0.00738348 0 -0.000193221)
(0.00745476 0 -0.000222857)
(0.00753678 0 -0.000255632)
(0.00763067 0 -0.000292202)
(0.00773778 0 -0.000333335)
(0.00785973 0 -0.000379939)
(0.00799845 0 -0.000433099)
(0.00815622 0 -0.00049412)
(0.00833577 0 -0.000564598)
(0.00854039 0 -0.000646495)
(0.00877399 0 -0.000742254)
(0.00904131 0 -0.000854956)
(0.00934812 0 -0.000988534)
(0.0097015 0 -0.00114809)
(0.0101103 0 -0.00134039)
(0.0105855 0 -0.00157455)
(0.0111415 0 -0.0018633)
(0.0117966 0 -0.002225)
(0.0125752 0 -0.00268714)
(0.0135096 0 -0.0032927)
(0.0146413 0 -0.00411144)
(0.0160206 0 -0.00525989)
(0.0176959 0 -0.00693354)
(0.0196844 0 -0.00945372)
(0.0218886 0 -0.013333)
(0.0238223 0 -0.0193289)
(0.0239367 0 -0.0281503)
(0.0195738 0 -0.0386308)
(0.0103332 0 -0.0455232)
(-0.00134389 0 -0.046111)
(-0.0110873 0 -0.0397201)
(-0.0156282 0 -0.0291246)
(-0.0155098 0 -0.0200242)
(-0.0134788 0 -0.013758)
(-0.0111579 0 -0.00966495)
(-0.00906617 0 -0.00699405)
(-0.0073126 0 -0.00522322)
(-0.00588142 0 -0.00401624)
(-0.00472082 0 -0.00316392)
(-0.0037759 0 -0.00253953)
(-0.00300061 0 -0.00206631)
(-0.00235951 0 -0.00169668)
(-0.00182611 0 -0.00140004)
(-0.00138076 0 -0.00115598)
(-0.00100889 0 -0.000950391)
(-0.000699123 0 -0.000773442)
(-0.000440649 0 -0.000618349)
(-0.000225046 0 -0.000480513)
(-0.000104607 0 -0.000358019)
(-0.000349726 0 0.00173281)
(-0.000729414 0 0.00208671)
(-0.00136013 0 0.00232968)
(-0.00201672 0 0.00246348)
(-0.00267788 0 0.00249096)
(-0.00332415 0 0.00241454)
(-0.00392956 0 0.00223625)
(-0.00446714 0 0.00195778)
(-0.0049105 0 0.00158069)
(-0.00523362 0 0.00110685)
(-0.00541101 0 0.0005391)
(-0.00541816 0 -0.000118157)
(-0.005232 0 -0.000858123)
(-0.00483237 0 -0.00166951)
(-0.00420283 0 -0.00253578)
(-0.00333223 0 -0.00343478)
(-0.00221681 0 -0.00433899)
(-0.000861581 0 -0.00521634)
(0.000730034 0 -0.00602777)
(0.00250816 0 -0.00671206)
(0.00443858 0 -0.00723691)
(0.00647386 0 -0.00758303)
(0.00856326 0 -0.00774119)
(0.0106564 0 -0.00771245)
(0.0127058 0 -0.00750725)
(0.0146686 0 -0.0071437)
(0.0165085 0 -0.00664532)
(0.0181964 0 -0.00603887)
(0.0197102 0 -0.00535223)
(0.0210355 0 -0.00461277)
(0.0221637 0 -0.00384605)
(0.0230926 0 -0.00307497)
(0.0238243 0 -0.00231922)
(0.0243652 0 -0.00159504)
(0.0247247 0 -0.000915154)
(0.0249148 0 -0.000288811)
(0.0249487 0 0.000278227)
(0.0248415 0 0.000783357)
(0.0246084 0 0.00122587)
(0.0242648 0 0.00160622)
(0.0238262 0 0.001926)
(0.0233076 0 0.0021877)
(0.0227232 0 0.00239464)
(0.0220867 0 0.00255069)
(0.0214107 0 0.00266016)
(0.0207067 0 0.0027276)
(0.0199853 0 0.00275768)
(0.0192558 0 0.00275507)
(0.0185266 0 0.0027243)
(0.0178049 0 0.00266973)
(0.0170968 0 0.00259543)
(0.0164074 0 0.00250521)
(0.0157409 0 0.00240251)
(0.0151008 0 0.00229043)
(0.0144896 0 0.00217174)
(0.013909 0 0.00204884)
(0.0133605 0 0.00192382)
(0.0128446 0 0.00179845)
(0.0123616 0 0.00167421)
(0.0119113 0 0.00155232)
(0.0114931 0 0.00143377)
(0.0111064 0 0.00131933)
(0.0107502 0 0.00120957)
(0.0104232 0 0.00110492)
(0.0101241 0 0.00100565)
(0.00985161 0 0.000911924)
(0.00960428 0 0.000823798)
(0.00938065 0 0.000741239)
(0.00917927 0 0.000664145)
(0.00899869 0 0.000592355)
(0.00883752 0 0.000525661)
(0.00869441 0 0.000463817)
(0.00856809 0 0.000406548)
(0.00845732 0 0.000353554)
(0.00836098 0 0.000304522)
(0.00827801 0 0.000259123)
(0.00820744 0 0.00021702)
(0.0081484 0 0.000177871)
(0.0081001 0 0.00014133)
(0.00806184 0 0.000107049)
(0.00803303 0 7.46775e-05)
(0.00801316 0 4.38666e-05)
(0.00800182 0 1.42658e-05)
(0.0079987 0 -1.44747e-05)
(0.00800358 0 -4.27153e-05)
(0.00801634 0 -7.08364e-05)
(0.00803697 0 -9.92377e-05)
(0.00806554 0 -0.000128339)
(0.00810225 0 -0.000158589)
(0.00814744 0 -0.000190471)
(0.00820155 0 -0.000224516)
(0.00826516 0 -0.000261314)
(0.00833902 0 -0.000301527)
(0.00842404 0 -0.000345907)
(0.00852132 0 -0.000395325)
(0.00863219 0 -0.000450789)
(0.00875822 0 -0.00051349)
(0.00890127 0 -0.000584843)
(0.00906354 0 -0.000666549)
(0.00924762 0 -0.000760672)
(0.00945659 0 -0.000869748)
(0.0096941 0 -0.000996919)
(0.00996449 0 -0.00114613)
(0.0102729 0 -0.00132242)
(0.0106257 0 -0.00153226)
(0.0110303 0 -0.00178421)
(0.0114959 0 -0.00208974)
(0.0120336 0 -0.00246459)
(0.012657 0 -0.00293092)
(0.013382 0 -0.00352073)
(0.0142265 0 -0.00428125)
(0.0152078 0 -0.00528328)
(0.016335 0 -0.00663336)
(0.0175917 0 -0.00848902)
(0.0189009 0 -0.0110725)
(0.0200567 0 -0.0146707)
(0.0205868 0 -0.019578)
(0.0195422 0 -0.0258291)
(0.0156744 0 -0.032425)
(0.00891859 0 -0.0367638)
(0.000751395 0 -0.0371846)
(-0.00636898 0 -0.0332666)
(-0.0103921 0 -0.026698)
(-0.0114899 0 -0.0202872)
(-0.0109255 0 -0.0151719)
(-0.00969139 0 -0.0113804)
(-0.00829173 0 -0.00864145)
(-0.00695079 0 -0.00667151)
(-0.00575425 0 -0.00524218)
(-0.00472091 0 -0.00418701)
(-0.00384078 0 -0.00339102)
(-0.00309456 0 -0.00277659)
(-0.00246217 0 -0.00229129)
(-0.00192578 0 -0.00189932)
(-0.00147066 0 -0.00157572)
(-0.00108505 0 -0.0013028)
(-0.000759217 0 -0.00106796)
(-0.000483148 0 -0.000862326)
(-0.000248991 0 -0.000679895)
(-0.000116544 0 -0.000517717)
(-0.000364653 0 0.00223418)
(-0.00075974 0 0.00267423)
(-0.00141523 0 0.00297225)
(-0.00209518 0 0.0031318)
(-0.00277744 0 0.00315679)
(-0.00344187 0 0.00305036)
(-0.00406154 0 0.00281492)
(-0.00460852 0 0.00245237)
(-0.00505536 0 0.00196445)
(-0.00537491 0 0.0013534)
(-0.00554043 0 0.000622794)
(-0.00552605 0 -0.000221711)
(-0.00530738 0 -0.00117115)
(-0.00486297 0 -0.00221088)
(-0.00417512 0 -0.0033197)
(-0.00323183 0 -0.00446931)
(-0.0020292 0 -0.00562455)
(-0.000570174 0 -0.00674453)
(0.0011355 0 -0.00777144)
(0.0030337 0 -0.00863013)
(0.00508763 0 -0.00928345)
(0.00724446 0 -0.00970734)
(0.00944914 0 -0.00989109)
(0.0116476 0 -0.00983743)
(0.0137897 0 -0.00956109)
(0.015831 0 -0.00908635)
(0.0177351 0 -0.008444)
(0.0194732 0 -0.00766844)
(0.0210252 0 -0.00679505)
(0.022378 0 -0.00585812)
(0.0235255 0 -0.00488935)
(0.024467 0 -0.00391686)
(0.0252067 0 -0.00296464)
(0.0257522 0 -0.00205234)
(0.0261141 0 -0.00119531)
(0.0263049 0 -0.000404689)
(0.0263384 0 0.000312425)
(0.0262295 0 0.000952589)
(0.0259934 0 0.0015147)
(0.0256456 0 0.00199919)
(0.0252015 0 0.0024079)
(0.0246761 0 0.00274383)
(0.0240836 0 0.003011)
(0.0234375 0 0.00321414)
(0.0227503 0 0.00335851)
(0.0220338 0 0.00344973)
(0.0212984 0 0.00349353)
(0.0205535 0 0.00349568)
(0.0198076 0 0.00346181)
(0.0190679 0 0.00339734)
(0.0183408 0 0.00330737)
(0.0176315 0 0.00319665)
(0.0169445 0 0.00306953)
(0.0162834 0 0.00292996)
(0.0156508 0 0.00278143)
(0.0150488 0 0.00262703)
(0.0144789 0 0.00246944)
(0.013942 0 0.00231096)
(0.0134383 0 0.0021535)
(0.0129679 0 0.00199868)
(0.0125304 0 0.00184779)
(0.012125 0 0.00170185)
(0.0117509 0 0.00156166)
(0.0114069 0 0.00142778)
(0.0110919 0 0.00130062)
(0.0108043 0 0.0011804)
(0.0105429 0 0.00106723)
(0.0103062 0 0.000961095)
(0.0100927 0 0.000861888)
(0.00990087 0 0.000769422)
(0.00972939 0 0.000683448)
(0.00957684 0 0.000603666)
(0.00944191 0 0.000529736)
(0.00932334 0 0.000461284)
(0.00921994 0 0.000397917)
(0.00913063 0 0.00033922)
(0.00905439 0 0.000284769)
(0.0089903 0 0.000234129)
(0.00893754 0 0.000186861)
(0.00889537 0 0.000142522)
(0.00886315 0 0.000100667)
(0.00884034 0 6.08478e-05)
(0.0088265 0 2.26176e-05)
(0.00882128 0 -1.44715e-05)
(0.00882445 0 -5.08762e-05)
(0.00883583 0 -8.70773e-05)
(0.0088554 0 -0.00012358)
(0.0088832 0 -0.000160914)
(0.00891941 0 -0.000199645)
(0.00896431 0 -0.000240381)
(0.00901832 0 -0.000283784)
(0.00908199 0 -0.000330589)
(0.00915601 0 -0.000381618)
(0.00924122 0 -0.000437799)
(0.00933867 0 -0.0005002)
(0.00944958 0 -0.000570054)
(0.00957539 0 -0.000648807)
(0.0097178 0 -0.000738171)
(0.0098788 0 -0.000840189)
(0.0100607 0 -0.000957328)
(0.0102662 0 -0.0010926)
(0.0104984 0 -0.0012497)
(0.010761 0 -0.00143325)
(0.0110582 0 -0.00164908)
(0.0113949 0 -0.00190463)
(0.0117766 0 -0.00220957)
(0.0122098 0 -0.00257661)
(0.0127016 0 -0.00302278)
(0.0132591 0 -0.00357125)
(0.0138892 0 -0.0042539)
(0.0145956 0 -0.00511502)
(0.015375 0 -0.00621599)
(0.0162078 0 -0.00764049)
(0.0170421 0 -0.00949788)
(0.0177676 0 -0.011919)
(0.0181752 0 -0.0150328)
(0.0179029 0 -0.0189005)
(0.0163969 0 -0.0233496)
(0.0130902 0 -0.027656)
(0.00805852 0 -0.030439)
(0.00222164 0 -0.0307385)
(-0.00306921 0 -0.0283065)
(-0.00650643 0 -0.0240978)
(-0.00808613 0 -0.0195771)
(-0.00836403 0 -0.0155658)
(-0.00791293 0 -0.0122943)
(-0.0071185 0 -0.00973033)
(-0.00620749 0 -0.00775603)
(-0.00530162 0 -0.00624159)
(-0.0044586 0 -0.00507371)
(-0.00370031 0 -0.00416313)
(-0.00303048 0 -0.00344293)
(-0.00244455 0 -0.00286399)
(-0.00193488 0 -0.00239048)
(-0.00149332 0 -0.00199611)
(-0.00111241 0 -0.00166152)
(-0.000785241 0 -0.00137241)
(-0.000503659 0 -0.00111839)
(-0.000261244 0 -0.000892223)
(-0.000122849 0 -0.0006897)
(-0.00037239 0 0.00275117)
(-0.000775763 0 0.00327963)
(-0.00144485 0 0.00363302)
(-0.0021376 0 0.00381734)
(-0.00283133 0 0.00383785)
(-0.0035054 0 0.00369856)
(-0.00413226 0 0.00340231)
(-0.00468326 0 0.00295113)
(-0.00513013 0 0.00234682)
(-0.0054447 0 0.00159186)
(-0.00559903 0 0.000690383)
(-0.00556582 0 -0.000350757)
(-0.00531918 0 -0.00152049)
(-0.004836 0 -0.00280084)
(-0.00409693 0 -0.00416579)
(-0.00308866 0 -0.00558053)
(-0.00180686 0 -0.00700156)
(-0.000250985 0 -0.00837798)
(0.00155919 0 -0.00962812)
(0.00356966 0 -0.010666)
(0.00573783 0 -0.0114477)
(0.00800536 0 -0.0119443)
(0.0103121 0 -0.0121442)
(0.0125996 0 -0.0120528)
(0.0148148 0 -0.0116903)
(0.0169118 0 -0.0110886)
(0.0188542 0 -0.0102869)
(0.0206147 0 -0.00932825)
(0.0221752 0 -0.00825619)
(0.0235256 0 -0.00711225)
(0.0246625 0 -0.00593432)
(0.0255881 0 -0.00475556)
(0.026309 0 -0.00360394)
(0.0268351 0 -0.00250214)
(0.0271783 0 -0.00146765)
(0.0273522 0 -0.000513102)
(0.0273712 0 0.000353508)
(0.0272501 0 0.00112813)
(0.0270043 0 0.00180932)
(0.0266491 0 0.00239753)
(0.0261997 0 0.00289491)
(0.0256706 0 0.00330503)
(0.0250757 0 0.00363259)
(0.0244282 0 0.00388321)
(0.0237402 0 0.0040631)
(0.0230231 0 0.00417885)
(0.0222868 0 0.00423727)
(0.0215408 0 0.00424518)
(0.020793 0 0.00420923)
(0.0200507 0 0.00413587)
(0.0193201 0 0.00403119)
(0.0186064 0 0.00390086)
(0.017914 0 0.00375011)
(0.0172466 0 0.00358367)
(0.0166069 0 0.0034058)
(0.0159972 0 0.00322024)
(0.0154189 0 0.00303027)
(0.0148731 0 0.00283871)
(0.0143602 0 0.00264794)
(0.0138804 0 0.00245996)
(0.0134333 0 0.00227639)
(0.0130183 0 0.00209854)
(0.0126347 0 0.0019274)
(0.0122814 0 0.00176373)
(0.0119573 0 0.00160804)
(0.011661 0 0.00146068)
(0.0113912 0 0.00132178)
(0.0111464 0 0.00119138)
(0.0109252 0 0.00106936)
(0.0107262 0 0.000955523)
(0.010548 0 0.000849591)
(0.0103891 0 0.00075121)
(0.0102483 0 0.00065998)
(0.0101243 0 0.00057546)
(0.0100159 0 0.000497175)
(0.00992192 0 0.000424629)
(0.00984144 0 0.00035731)
(0.00977347 0 0.000294692)
(0.00971716 0 0.000236243)
(0.00967175 0 0.000181425)
(0.00963659 0 0.000129696)
(0.0096111 0 8.05111e-05)
(0.00959481 0 3.3325e-05)
(0.00958735 0 -1.24091e-05)
(0.00958845 0 -5.72456e-05)
(0.00959793 0 -0.000101764)
(0.0096157 0 -0.000146573)
(0.00964179 0 -0.000192312)
(0.00967632 0 -0.000239656)
(0.00971954 0 -0.000289334)
(0.00977181 0 -0.000342135)
(0.00983361 0 -0.000398928)
(0.00990556 0 -0.000460681)
(0.0099884 0 -0.000528482)
(0.0100831 0 -0.000603572)
(0.0101906 0 -0.000687381)
(0.0103123 0 -0.00078157)
(0.0104496 0 -0.000888092)
(0.0106041 0 -0.00100926)
(0.0107779 0 -0.00114785)
(0.0109731 0 -0.00130721)
(0.0111921 0 -0.00149143)
(0.0114377 0 -0.00170555)
(0.0117129 0 -0.00195582)
(0.012021 0 -0.00225014)
(0.0123654 0 -0.00259853)
(0.0127495 0 -0.00301387)
(0.013176 0 -0.00351285)
(0.0136465 0 -0.00411731)
(0.0141597 0 -0.0048558)
(0.0147085 0 -0.00576553)
(0.015276 0 -0.00689413)
(0.0158273 0 -0.00830029)
(0.0162983 0 -0.0100509)
(0.0165796 0 -0.0122106)
(0.0164983 0 -0.0148164)
(0.0158046 0 -0.0178271)
(0.0141873 0 -0.0210332)
(0.0114018 0 -0.0239353)
(0.00756482 0 -0.0257689)
(0.00325179 0 -0.025981)
(-0.000740942 0 -0.0244498)
(-0.00364808 0 -0.0216711)
(-0.00534039 0 -0.0184528)
(-0.00606108 0 -0.0153531)
(-0.00612473 0 -0.012628)
(-0.00579577 0 -0.0103466)
(-0.00526125 0 -0.00848656)
(-0.00464139 0 -0.00698873)
(-0.00400752 0 -0.00578615)
(-0.00339859 0 -0.00481738)
(-0.00283371 0 -0.00403098)
(-0.00232053 0 -0.00338582)
(-0.00186049 0 -0.00284973)
(-0.00145194 0 -0.00239777)
(-0.00109207 0 -0.00201071)
(-0.000777324 0 -0.00167372)
(-0.000502023 0 -0.00137561)
(-0.000261697 0 -0.00110823)
(-0.000123471 0 -0.000866116)
(-0.000374045 0 0.00327458)
(-0.000779414 0 0.00389268)
(-0.00145213 0 0.0043017)
(-0.00214827 0 0.00451032)
(-0.00284503 0 0.00452535)
(-0.00352153 0 0.00435173)
(-0.00414991 0 0.00399268)
(-0.00470107 0 0.0034502)
(-0.00514606 0 0.00272599)
(-0.00545578 0 0.0018225)
(-0.00560103 0 0.000744217)
(-0.00555292 0 -0.000501058)
(-0.00528383 0 -0.00190032)
(-0.00476852 0 -0.0034324)
(-0.00398544 0 -0.00506642)
(-0.00291946 0 -0.00676065)
(-0.00156539 0 -0.00846237)
(8.15998e-05 0 -0.010109)
(0.00199026 0 -0.0115904)
(0.00410794 0 -0.0128118)
(0.00638456 0 -0.0137205)
(0.00875554 0 -0.0142829)
(0.0111545 0 -0.0144868)
(0.013518 0 -0.0143414)
(0.0157895 0 -0.0138743)
(0.0179218 0 -0.0131265)
(0.0198789 0 -0.0121474)
(0.0216357 0 -0.0109898)
(0.0231771 0 -0.00970602)
(0.0244965 0 -0.00834534)
(0.0255945 0 -0.00695179)
(0.0264769 0 -0.00556335)
(0.0271534 0 -0.00421154)
(0.0276364 0 -0.0029215)
(0.02794 0 -0.00171235)
(0.0280793 0 -0.000597607)
(0.0280692 0 0.000414381)
(0.0279246 0 0.00131929)
(0.0276612 0 0.0021155)
(0.027294 0 0.00280363)
(0.0268376 0 0.00338626)
(0.0263063 0 0.0038676)
(0.0257131 0 0.00425315)
(0.0250706 0 0.00454938)
(0.0243903 0 0.00476346)
(0.0236826 0 0.00490295)
(0.0229571 0 0.00497566)
(0.0222225 0 0.00498937)
(0.0214863 0 0.00495175)
(0.0207554 0 0.00487016)
(0.0200355 0 0.0047516)
(0.0193317 0 0.00460262)
(0.0186482 0 0.00442925)
(0.0179886 0 0.00423699)
(0.0173555 0 0.00403078)
(0.0167511 0 0.00381501)
(0.016177 0 0.00359352)
(0.0156342 0 0.00336966)
(0.0151234 0 0.00314624)
(0.0146446 0 0.00292564)
(0.0141977 0 0.00270984)
(0.0137823 0 0.00250039)
(0.0133976 0 0.00229854)
(0.0130427 0 0.00210521)
(0.0127166 0 0.00192107)
(0.0124179 0 0.00174654)
(0.0121454 0 0.00158185)
(0.0118978 0 0.00142705)
(0.0116737 0 0.00128206)
(0.0114717 0 0.00114667)
(0.0112905 0 0.00102056)
(0.0111286 0 0.000903345)
(0.0109848 0 0.000794573)
(0.0108579 0 0.000693736)
(0.0107466 0 0.000600287)
(0.0106499 0 0.000513651)
(0.0105668 0 0.000433232)
(0.0104962 0 0.000358416)
(0.0104374 0 0.000288581)
(0.0103896 0 0.000223095)
(0.0103521 0 0.000161325)
(0.0103243 0 0.000102629)
(0.0103058 0 4.63667e-05)
(0.0102961 0 -8.1072e-06)
(0.0102949 0 -6.14423e-05)
(0.010302 0 -0.000114314)
(0.0103174 0 -0.000167429)
(0.010341 0 -0.000221528)
(0.0103729 0 -0.000277394)
(0.0104132 0 -0.000335863)
(0.0104623 0 -0.000397841)
(0.0105205 0 -0.000464317)
(0.0105884 0 -0.000536387)
(0.0106666 0 -0.000615275)
(0.0107558 0 -0.000702367)
(0.010857 0 -0.000799249)
(0.0109712 0 -0.000907748)
(0.0110994 0 -0.00102999)
(0.0112432 0 -0.00116849)
(0.0114038 0 -0.00132621)
(0.011583 0 -0.00150669)
(0.0117823 0 -0.00171421)
(0.0120036 0 -0.00195395)
(0.0122487 0 -0.00223227)
(0.0125192 0 -0.00255701)
(0.0128163 0 -0.00293788)
(0.0131407 0 -0.00338703)
(0.0134914 0 -0.00391963)
(0.0138653 0 -0.00455469)
(0.0142552 0 -0.00531573)
(0.0146473 0 -0.00623144)
(0.0150177 0 -0.00733548)
(0.0153265 0 -0.00866475)