/*--------------------------------*- C++ -*----------------------------------*\
  =========                 |
  \\      /  F ield         | OpenFOAM: The Open Source CFD Toolbox
   \\    /   O peration     | Website:  https://openfoam.org
    \\  /    A nd           | Version:  13
     \\/     M anipulation  |
\*---------------------------------------------------------------------------*/
FoamFile
{
    format      ascii;
    class       volScalarField;
    location    "514.831886";
    object      T;
}
// * * * * * * * * * * * * * * * * * * * * * * * * * * * * * * * * * * * * * //

dimensions      [0 0 0 1 0 0 0];

internalField   nonuniform List<scalar> 
5712
(
328.067
328.132
328.239
328.339
328.493
328.595
328.839
328.923
328.761
328.86
328.489
328.588
328.289
328.381
328.136
328.206
328.579
328.712
328.754
328.937
329.001
329.17
329.163
329.379
327.85
327.492
327.919
327.584
328.014
327.671
328.122
327.797
328.389
328.19
328.574
328.321
327.891
328.101
328.97
329.292
329.151
329.391
329.357
329.63
329.57
329.778
328.606
328.939
328.799
329.052
328.313
328.636
327.081
326.833
327.252
326.993
327.261
326.949
327.464
327.176
327.524
327.103
327.84
327.447
328.088
327.698
328.375
327.978
328.685
328.745
328.963
328.995
329.244
329.318
329.47
329.543
328.473
328.409
328.15
328.146
329.2
329.203
329.416
329.376
329.673
329.734
329.865
329.896
328.74
328.629
328.978
328.808
327.992
327.52
327.828
327.303
327.647
327.167
327.554
327.011
328.279
327.818
328.054
327.537
328.536
328.08
328.233
327.723
326.496
325.959
326.407
325.877
326.661
326.159
326.499
325.992
326.94
326.551
326.656
326.237
328.295
328.952
327.698
327.249
326.762
328.85
328.156
327.443
326.964
326.442
329.035
328.417
327.819
327.254
326.7
325.464
325.21
325.206
324.982
325.713
325.422
325.375
325.133
326.15
325.822
325.668
325.38
328.683
328.409
327.926
327.56
327.227
326.851
326.673
326.303
325.948
325.583
328.91
328.686
328.218
327.84
327.571
327.144
326.929
326.473
326.125
325.651
328.561
328.14
328.866
328.493
329.241
329.103
329.517
329.43
328.177
327.691
327.879
327.363
329.126
328.752
329.297
328.94
329.741
329.657
329.903
329.836
328.447
327.953
328.619
328.136
327.396
326.817
326.435
325.744
327.154
326.545
326.269
325.589
327.617
327.057
326.591
325.912
327.825
327.26
326.807
326.164
325.112
324.984
324.772
325.069
325.001
324.805
325.272
325.118
324.892
325.19
325.111
324.899
325.601
325.404
325.151
325.376
325.265
325.027
328.071
327.689
327.287
327.166
326.83
326.474
326.485
326.192
325.879
326.001
325.75
325.45
325.526
325.377
325.098
328.37
327.939
327.482
327.331
326.884
326.435
326.628
326.228
325.825
326.062
325.751
325.393
325.539
325.349
325.027
329.749
329.887
329.874
330.053
329.411
329.581
329.554
329.765
329.797
330.065
329.832
330.08
329.882
330.12
329.943
330.166
330.143
330.023
330.222
330.079
330.179
330.278
330.195
330.36
329.935
330.117
330.226
330.386
330.338
330.489
330.339
330.495
330.336
330.576
330.291
330.513
330.377
330.622
330.368
330.592
330.418
330.684
330.489
330.728
330.544
330.749
330.676
330.841
330.064
330.181
330.228
330.358
329.709
329.811
329.899
330.008
330.456
330.612
330.311
330.455
330.387
330.511
330.544
330.646
330.077
330.178
330.25
330.327
330.597
330.747
330.742
330.867
330.647
330.85
330.776
330.891
330.529
330.75
330.639
330.776
330.763
330.938
330.895
330.99
330.89
331.033
331.001
331.076
330.314
330.183
330.545
330.412
330.321
330.184
330.565
330.427
330.334
330.21
330.596
330.472
329.935
329.512
330.199
330.411
330.634
329.418
329.835
330.078
330.286
330.525
329.598
330.01
330.306
330.505
330.663
329.965
329.669
330.192
329.905
329.986
329.702
330.229
329.952
330.036
329.767
330.299
330.041
329.292
329.06
329.735
329.498
329.986
329.744
330.181
329.935
330.408
330.163
329.517
329.375
329.94
329.796
330.227
330.059
330.411
330.208
330.549
330.301
330.197
330.135
330.378
330.361
329.814
329.762
330.028
330.036
330.601
330.526
330.445
330.331
330.518
330.537
330.651
330.684
330.196
330.238
330.344
330.402
330.728
330.684
330.847
330.816
330.735
330.597
330.788
330.584
330.593
330.421
330.678
330.447
330.852
330.744
330.884
330.704
330.951
330.855
330.972
330.814
329.268
328.872
328.5
329.412
328.964
328.59
329.325
328.923
328.542
329.479
329.027
328.637
329.411
329.016
328.628
329.588
329.114
328.697
328.75
328.368
327.96
329.18
328.784
328.365
329.421
329.006
328.579
329.592
329.177
328.762
329.707
329.207
328.752
329.122
328.704
328.239
329.531
329.104
328.634
329.758
329.306
328.821
329.856
329.38
328.891
329.823
329.298
328.796
330.666
330.483
330.026
329.201
330.591
330.395
329.923
329.092
330.7
330.509
330.05
329.217
330.652
330.443
329.966
329.132
330.744
330.543
330.102
329.292
330.764
330.539
330.069
329.242
330.752
330.503
329.999
329.153
330.803
330.525
330
329.148
330.849
330.609
330.148
329.328
330.834
330.578
330.154
329.415
330.775
330.559
330.142
329.381
330.751
330.52
330.127
329.431
330.909
330.646
330.149
329.298
330.906
330.628
330.179
329.422
330.972
330.685
330.17
329.323
330.969
330.671
330.209
329.454
330.651
330.487
330.071
329.294
330.543
330.403
330.047
329.367
330.661
330.492
330.081
329.308
330.548
330.402
330.047
329.374
330.675
330.495
330.097
329.346
330.571
330.41
330.055
329.389
330.68
330.486
330.106
329.399
330.594
330.416
330.064
329.417
330.67
330.461
330.098
329.449
330.377
330.259
329.937
329.449
330.192
330.087
329.758
329.299
330.398
330.27
329.946
329.458
330.213
330.097
329.765
329.303
330.436
330.29
329.958
329.467
330.252
330.116
329.774
329.312
330.492
330.321
329.981
329.487
330.303
330.142
329.79
329.323
330.563
330.361
330.008
329.508
330.364
330.173
329.807
329.335
330.699
330.438
330.046
329.527
330.519
330.263
329.864
329.374
330.632
330.399
330.026
329.516
330.442
330.217
329.835
329.355
330.76
330.475
330.065
329.536
330.59
330.306
329.89
329.394
330.818
330.513
330.09
329.557
330.656
330.347
329.918
329.416
327.962
326.969
326.128
325.448
324.929
327.899
326.918
326.08
325.402
324.884
327.969
326.973
326.131
325.45
324.931
327.91
326.925
326.086
325.407
324.888
327.983
326.979
326.135
325.454
324.934
327.956
326.964
326.122
325.441
324.921
327.932
326.939
326.095
325.414
324.894
327.948
326.95
326.104
325.421
324.9
327.993
326.984
326.138
325.456
324.935
327.942
326.911
326.063
325.382
324.863
327.981
326.966
326.12
325.439
324.919
327.925
326.894
326.047
325.367
324.848
327.995
326.985
326.137
325.454
324.933
327.937
326.904
326.054
325.373
324.853
328.011
326.996
326.145
325.46
324.939
327.941
326.903
326.052
325.368
324.849
327.954
326.945
326.103
325.424
324.905
327.88
326.857
326.015
325.338
324.821
327.956
326.944
326.1
325.421
324.902
327.882
326.857
326.015
325.337
324.82
327.955
326.937
326.092
325.411
324.892
327.881
326.853
326.01
325.332
324.814
327.933
326.905
326.059
325.379
324.86
327.869
326.838
325.994
325.315
324.798
327.889
326.858
326.012
325.333
324.815
324.115
323.964
324.186
324.032
324.317
324.145
324.485
324.282
324.655
324.418
324.929
324.658
324.791
324.525
325.064
324.804
325.202
324.967
322.514
320.779
319.336
318.225
317.472
322.537
320.792
319.333
318.215
317.45
322.546
320.797
319.347
318.232
317.479
322.567
320.805
319.344
318.218
317.455
322.612
320.833
319.37
318.249
317.493
322.63
320.84
319.366
318.234
317.469
322.7
320.885
319.405
318.275
317.514
322.711
320.887
319.397
318.257
317.488
322.805
320.951
319.45
318.308
317.542
322.8
320.943
319.436
318.286
317.512
323.03
321.114
319.569
318.401
317.623
323.006
321.091
319.543
318.37
317.587
322.917
321.031
319.507
318.351
317.58
322.897
321.011
319.483
318.322
317.544
323.142
321.199
319.634
318.453
317.669
323.126
321.182
319.613
318.427
317.638
323.255
321.287
319.702
318.508
317.717
323.255
321.279
319.69
318.489
317.691
330.175
329.936
329.708
329.982
329.578
329.619
329.635
329.691
329.561
329.637
329.239
329.326
329.061
329.16
329.301
329.385
329.392
329.451
329.406
329.451
329.949
329.989
329.136
328.814
328.725
328.687
328.98
329.234
328.879
329.263
328.563
328.104
329.149
329.039
328.678
329.041
328.892
328.85
329.52
329.509
329.287
329.347
329.452
329.517
329.414
329.299
328.899
328.964
329.132
329.199
329.819
329.886
329.729
329.777
329.649
329.643
329.39
329.109
329.403
330.399
330.624
330.715
330.692
330.554
330.328
330.518
330.596
330.553
330.376
329.368
329.474
329.483
329.387
329.183
329.036
329.133
329.133
329.032
328.826
328.95
329.051
329.055
328.957
328.754
328.909
329.006
329.005
328.904
328.7
329.209
329.312
329.318
329.221
329.017
329.723
330.015
330.165
330.187
330.087
329.398
329.713
329.871
329.895
329.78
329.615
329.837
329.95
329.934
329.773
329.043
329.344
329.49
329.499
329.359
328.569
328.877
329.023
329.034
328.895
329.43
329.591
329.651
329.595
329.411
329.363
329.564
329.66
329.63
329.46
328.991
329.184
329.273
329.238
329.068
329.304
329.446
329.489
329.421
329.232
329.169
329.327
329.385
329.328
329.145
329.107
329.244
329.284
329.213
329.023
329.97
330.219
330.34
330.343
330.224
329.822
330.01
330.093
330.056
329.881
329.556
329.703
329.75
329.684
329.495
329.604
329.739
329.774
329.699
329.505
329.729
329.883
329.937
329.876
329.689
329.78
329.919
329.958
329.886
329.692
329.659
329.78
329.802
329.716
329.516
329.542
329.662
329.683
329.597
329.397
329.138
329.255
329.275
329.189
328.991
329.198
329.308
329.32
329.228
329.026
329.384
329.513
329.545
329.468
329.273
329.444
329.565
329.589
329.504
329.306
330.256
330.488
330.588
330.573
330.443
330.204
330.384
330.457
330.41
330.23
330.094
330.302
330.399
330.377
330.228
330.063
330.221
330.277
330.217
330.03
329.919
330.066
330.111
330.043
329.852
329.951
330.131
330.209
330.167
329.991
329.638
329.761
329.785
329.702
329.503
329.344
329.455
329.467
329.375
329.173
329.657
329.788
329.819
329.741
329.545
330.084
329.938
330.072
329.911
330.405
330.236
330.412
330.262
330.059
330.041
329.904
329.936
330.4
330.39
330.245
330.29
329.742
329.405
329.61
329.287
329.74
329.435
329.586
329.287
329.58
329.717
329.655
329.746
329.481
329.343
329.715
329.553
329.788
329.611
330.043
329.873
330.143
329.978
329.398
329.224
329.5
329.302
329.154
328.947
329.094
328.821
328.991
328.731
329.117
328.794
328.985
328.698
329.175
328.74
329.082
328.694
328.907
328.51
328.67
328.267
329.934
329.845
329.86
329.76
330.356
330.324
330.278
330.25
329.458
329.212
329.525
329.301
329.743
329.656
329.593
329.528
330.164
330.154
330.025
330.037
329.338
329.104
329.175
328.966
329.037
328.557
328.643
328.107
329.085
328.57
328.72
328.156
328.921
328.461
328.539
328.018
328.748
328.296
328.395
327.884
329.081
328.934
328.779
328.545
329.107
328.986
328.737
328.512
329.154
329.09
328.661
328.475
329.954
330.389
329.527
329.067
328.479
330.404
329.99
329.565
329.081
328.383
330.364
329.895
329.356
328.766
328.157
328.687
328.568
327.917
327.685
328.803
328.684
327.961
327.73
328.976
328.877
328.015
327.782
330.393
330.325
329.953
329.873
329.492
329.412
328.935
328.834
327.941
327.693
330.359
330.286
329.844
329.684
329.259
329.058
328.582
328.345
327.673
327.375
329.717
329.443
329.639
329.358
330.303
330.264
330.235
330.21
328.98
328.586
329.074
328.699
329.57
329.248
329.443
329.099
330.154
330.11
330.039
329.983
328.91
328.468
328.771
328.301
328.194
327.691
327.199
326.572
328.332
327.843
327.385
326.797
328.086
327.566
327.04
326.394
327.984
327.428
326.95
326.314
328.513
328.404
327.816
327.79
328.627
328.506
327.844
327.826
328.793
328.621
327.871
327.842
330.184
329.937
329.722
329.49
329.279
329.078
328.724
328.534
327.814
327.794
330.142
329.875
329.46
329.215
328.86
328.672
328.254
328.158
327.626
327.648
330.933
330.941
330.782
330.844
330.697
330.704
330.539
330.603
331.098
331.211
330.954
331.072
331.093
331.199
330.937
331.051
330.962
331.095
330.983
331.082
331.174
331.047
330.703
330.536
330.464
330.302
330.778
330.589
330.838
330.668
330.869
330.694
331.275
331.306
331.139
331.178
331.275
331.317
331.131
331.186
331.268
331.33
331.16
331.238
330.999
331.093
330.843
330.967
330.98
330.984
330.909
330.933
330.71
330.711
330.635
330.647
331.09
331.122
331.155
331.164
330.806
330.857
330.682
330.762
330.527
330.561
330.397
330.456
330.991
331.056
330.873
330.971
331.214
331.288
331.225
331.257
331.273
331.327
331.259
331.281
331.121
331.216
331.168
331.213
331.01
331.128
331.093
331.151
331.335
331.314
331.357
331.321
331.325
331.301
331.355
331.315
331.301
331.282
331.346
331.31
331.006
330.742
331.177
331.286
331.324
330.74
330.994
331.161
331.269
331.3
330.744
331.006
331.178
331.268
331.282
331.22
331.054
331.209
331.032
331.221
331.067
331.217
331.047
331.221
331.083
331.229
331.073
330.737
330.67
330.99
330.908
331.142
331.04
331.231
331.113
331.236
331.094
330.757
330.723
331.013
330.969
331.17
331.096
331.24
331.132
331.227
331.084
331.015
331.013
330.954
330.978
330.747
330.768
330.675
330.728
331.115
331.085
331.166
331.115
330.86
330.905
330.765
330.804
330.574
330.647
330.47
330.536
331.036
331.019
330.95
330.926
331.187
331.098
331.163
331.02
331.227
331.121
331.201
331.05
331.125
331.043
331.11
330.964
331.046
330.957
331.047
330.898
330.852
330.661
330.775
330.551
330.878
330.674
330.794
330.557
330.903
330.676
330.823
330.549
330.529
330.279
330.753
330.498
330.878
330.621
330.934
330.669
330.842
330.519
330.604
330.317
330.831
330.531
330.926
330.613
330.923
330.597
330.806
330.44
331.174
330.825
330.259
329.358
331.056
330.709
330.138
329.238
331.181
330.834
330.269
329.362
331.067
330.725
330.159
329.261
331.186
330.841
330.304
329.425
331.114
330.777
330.233
329.353
330.987
330.662
330.11
329.228
330.888
330.583
330.041
329.176
331.152
330.816
330.292
329.428
331.092
330.754
330.28
329.508
331.171
330.828
330.328
329.506
331.105
330.761
330.294
329.548
331.102
330.778
330.242
329.365
331.064
330.736
330.258
329.483
331.038
330.731
330.202
329.346
331.022
330.708
330.236
329.476
331.213
330.864
330.327
329.467
331.16
330.812
330.325
329.56
331.205
330.857
330.328
329.473
331.148
330.8
330.317
329.559
331.186
330.839
330.329
329.5
331.133
330.784
330.308
329.561
331.15
330.803
330.322
329.542
331.112
330.763
330.299
329.574
331.099
330.751
330.297
329.586
331.035
330.688
330.228
329.668
330.871
330.525
330.057
329.533
331.036
330.688
330.229
329.671
330.871
330.523
330.056
329.532
331.032
330.683
330.224
329.666
330.867
330.517
330.049
329.528
331.027
330.676
330.222
329.666
330.862
330.509
330.043
329.523
331.017
330.665
330.218
329.667
330.851
330.496
330.032
329.514
330.961
330.616
330.174
329.629
330.812
330.46
330.003
329.486
330.994
330.643
330.197
329.649
330.838
330.483
330.022
329.504
330.919
330.584
330.144
329.601
330.769
330.426
329.976
329.464
330.871
330.549
330.117
329.579
330.715
330.387
329.946
329.439
328.054
327.025
326.163
325.472
324.948
327.987
326.972
326.114
325.425
324.901
328.054
327.024
326.163
325.472
324.947
327.988
326.973
326.116
325.427
324.903
328.058
327.024
326.163
325.472
324.948
328.021
327.004
326.146
325.457
324.934
327.977
326.966
326.113
325.426
324.903
327.965
326.961
326.11
325.425
324.903
328.051
327.02
326.16
325.471
324.947
327.993
326.942
326.082
325.395
324.873
328.05
327.008
326.146
325.456
324.932
327.986
326.931
326.07
325.382
324.86
328.035
327.009
326.152
325.464
324.941
327.972
326.925
326.068
325.381
324.86
328.025
327.004
326.15
325.464
324.941
327.953
326.911
326.056
325.372
324.851
328.051
327.004
326.139
325.448
324.924
327.98
326.917
326.052
325.363
324.84
328.047
326.999
326.135
325.444
324.92
327.977
326.914
326.05
325.361
324.838
328.037
326.986
326.122
325.432
324.908
327.968
326.905
326.042
325.353
324.831
328.007
326.949
326.086
325.397
324.874
327.946
326.884
326.022
325.334
324.813
327.956
326.898
326.037
325.349
324.828
326.305
326.13
326.281
326.101
326.224
326.04
326.133
325.953
325.987
325.832
325.614
325.414
325.782
325.608
325.469
325.247
325.335
325.111
324.095
321.893
320.153
318.862
318.021
324.143
321.918
320.156
318.856
318
324.072
321.877
320.142
318.854
318.014
324.114
321.896
320.144
318.842
317.991
324.026
321.846
320.12
318.837
317.999
324.069
321.866
320.123
318.826
317.977
323.955
321.797
320.085
318.81
317.977
324.003
321.822
320.092
318.802
317.957
323.852
321.729
320.036
318.772
317.944
323.918
321.766
320.052
318.771
317.93
323.606
321.559
319.912
318.675
317.862
323.65
321.585
319.922
318.672
317.849
323.732
321.649
319.978
318.727
317.905
323.795
321.687
319.996
318.728
317.894
323.487
321.468
319.843
318.621
317.815
323.51
321.482
319.845
318.612
317.799
323.37
321.376
319.772
318.564
317.766
323.381
321.377
319.767
318.55
317.744
330.388
330.162
330.342
330.578
330.93
330.783
330.931
330.765
330.696
330.523
330.697
330.548
327.63
327.676
327.791
327.973
328.219
328.517
327.615
327.659
327.768
327.939
328.164
328.429
327.517
327.351
327.569
327.41
327.698
327.555
327.904
327.792
328.181
328.097
328.503
328.412
328.838
329.144
329.411
329.635
329.805
329.928
328.714
328.992
329.244
329.458
329.625
329.74
327.833
327.913
327.899
327.79
327.586
327.88
327.961
327.947
327.838
327.634
327.996
328.078
328.065
327.957
327.752
328.181
328.265
328.253
328.145
327.94
328.43
328.517
328.508
328.401
328.196
328.733
328.824
328.819
328.714
328.508
327.818
327.898
327.884
327.776
327.572
327.862
327.944
327.93
327.822
327.618
327.973
328.055
328.043
327.935
327.731
328.147
328.231
328.22
328.112
327.908
328.375
328.462
328.454
328.348
328.143
328.645
328.737
328.732
328.628
328.423
327.72
327.799
327.785
327.676
327.473
327.552
327.632
327.617
327.509
327.307
327.772
327.853
327.839
327.73
327.527
327.612
327.692
327.678
327.57
327.368
327.902
327.984
327.971
327.863
327.659
327.759
327.84
327.827
327.719
327.517
328.111
328.195
328.183
328.075
327.871
327.999
328.082
328.071
327.964
327.76
328.392
328.478
328.469
328.363
328.157
328.307
328.394
328.386
328.28
328.075
328.719
328.811
328.805
328.701
328.495
328.628
328.72
328.715
328.611
328.407
329.061
329.158
329.158
329.057
328.852
329.376
329.483
329.491
329.395
329.191
329.655
329.774
329.793
329.705
329.504
329.895
330.029
330.063
329.985
329.789
330.083
330.233
330.279
330.211
330.019
330.218
330.376
330.429
330.366
330.176
328.936
329.033
329.033
328.932
328.728
329.222
329.327
329.334
329.237
329.034
329.483
329.597
329.613
329.523
329.321
329.707
329.832
329.858
329.774
329.575
329.884
330.018
330.052
329.974
329.777
330.006
330.145
330.182
330.107
329.911
327.653
327.745
327.907
328.136
328.43
328.776
327.638
327.727
327.882
328.099
328.368
328.674
327.541
327.376
327.641
327.486
327.818
327.682
328.074
327.971
328.401
328.328
328.779
328.708
329.142
329.479
329.75
329.936
330.016
330.004
328.992
329.286
329.53
329.701
329.79
329.799
327.856
327.936
327.922
327.813
327.609
327.949
328.03
328.016
327.906
327.702
328.112
328.194
328.18
328.07
327.865
328.343
328.427
328.414
328.304
328.098
328.641
328.726
328.715
328.606
328.398
328.991
329.081
329.072
328.964
328.755
327.841
327.921
327.907
327.798
327.595
327.931
328.012
327.998
327.889
327.685
328.088
328.17
328.156
328.047
327.842
328.307
328.39
328.378
328.269
328.063
328.579
328.665
328.654
328.546
328.339
328.89
328.979
328.971
328.864
328.656
327.744
327.823
327.809
327.7
327.497
327.577
327.657
327.642
327.534
327.332
327.844
327.925
327.91
327.801
327.597
327.688
327.768
327.753
327.645
327.442
328.023
328.104
328.09
327.981
327.776
327.886
327.966
327.953
327.844
327.64
328.281
328.364
328.351
328.242
328.036
328.178
328.261
328.248
328.139
327.934
328.612
328.697
328.686
328.577
328.369
328.538
328.624
328.613
328.504
328.297
328.995
329.084
329.075
328.966
328.757
328.923
329.012
329.003
328.895
328.687
329.364
329.458
329.453
329.347
329.138
329.708
329.81
329.812
329.709
329.5
329.99
330.102
330.113
330.018
329.811
330.19
330.317
330.341
330.255
330.053
330.289
330.432
330.471
330.396
330.199
330.292
330.448
330.498
330.432
330.24
329.213
329.307
329.303
329.198
328.99
329.514
329.615
329.617
329.515
329.308
329.766
329.876
329.885
329.789
329.583
329.948
330.068
330.087
329.998
329.794
330.047
330.177
330.206
330.124
329.924
330.064
330.201
330.237
330.16
329.963
330.08
330.092
329.52
329.144
329.133
329.039
329.381
330.31
330.208
330.232
329.954
329.935
330.007
329.743
329.706
329.556
330.322
330.258
329.971
329.936
330.107
330.052
329.836
329.788
329.462
329.451
329.745
329.738
330.204
330.169
330.305
330.174
330.127
330.259
329.865
329.562
329.938
330.523
330.738
330.82
330.79
330.645
330.426
330.611
330.684
330.637
330.457
329.749
329.849
329.849
329.746
329.535
329.364
329.458
329.452
329.345
329.135
329.355
329.45
329.446
329.34
329.131
329.259
329.351
329.345
329.238
329.028
329.606
329.704
329.701
329.596
329.386
330.702
330.895
330.966
330.925
330.777
330.588
330.772
330.834
330.784
330.624
330.526
330.684
330.736
330.67
330.478
330.295
330.459
330.507
330.444
330.261
330.187
330.311
330.332
330.244
330.04
330.278
330.418
330.453
330.376
330.177
329.985
330.099
330.113
330.019
329.813
329.951
330.07
330.088
329.998
329.794
329.793
329.904
329.915
329.819
329.613
330.708
330.898
330.967
330.924
330.772
330.539
330.687
330.731
330.659
330.463
330.219
330.339
330.358
330.267
330.062
330.18
330.295
330.309
330.215
330.008
330.364
330.492
330.517
330.432
330.228
330.302
330.424
330.444
330.354
330.149
330.075
330.186
330.197
330.1
329.892
330.024
330.131
330.138
330.039
329.83
329.692
329.796
329.799
329.699
329.49
329.679
329.779
329.779
329.676
329.467
329.983
330.093
330.102
330.005
329.798
329.973
330.08
330.087
329.988
329.779
330.62
330.821
330.897
330.861
330.71
330.477
330.645
330.703
330.645
330.456
330.641
330.814
330.878
330.826
330.657
330.448
330.592
330.631
330.557
330.36
330.386
330.516
330.543
330.459
330.257
330.543
330.694
330.741
330.672
330.477
330.105
330.216
330.226
330.129
329.921
329.791
329.893
329.894
329.792
329.582
330.181
330.296
330.309
330.215
330.008
329.827
330.028
330.114
330.089
329.962
329.709
330.133
330.117
330.461
330.469
330.099
330.068
330.448
330.428
329.777
329.405
329.774
329.439
329.738
329.755
329.5
330.145
330.127
330.476
330.486
330.107
330.075
330.46
330.433
329.761
329.369
329.758
329.413
329.724
329.749
329.477
330.143
330.122
330.48
330.494
330.1
330.065
330.46
330.431
329.745
329.272
329.742
329.328
329.706
329.733
329.405
330.073
330.052
330.417
330.431
330.027
329.985
330.394
330.36
329.65
329.148
329.65
329.208
329.618
329.647
329.299
329.944
329.924
330.286
330.3
329.898
329.849
330.263
330.229
329.519
329.049
329.521
329.096
329.493
329.513
329.185
329.712
329.693
330.045
330.06
329.671
329.629
330.023
329.992
329.312
328.881
329.317
328.925
329.294
329.316
329.014
330.987
330.988
330.754
330.756
330.98
330.972
330.746
330.733
331.152
331.275
331.143
331.255
331.139
331.115
331.216
331.006
331.003
330.77
330.775
330.99
330.976
330.757
330.742
331.178
331.277
331.164
331.252
331.149
331.117
331.21
331.014
331.007
330.776
330.785
330.988
330.968
330.758
330.736
331.167
331.226
331.149
331.204
331.124
331.091
331.164
330.95
330.94
330.713
330.724
330.916
330.889
330.692
330.668
331.085
331.107
331.064
331.086
331.031
330.991
331.049
330.812
330.8
330.579
330.59
330.771
330.735
330.557
330.53
330.932
330.932
330.909
330.915
330.872
330.827
330.884
330.559
330.547
330.332
330.344
330.518
330.486
330.31
330.284
330.676
330.703
330.654
330.684
330.623
330.585
330.652
328.055
328.117
328.236
328.337
328.491
328.594
328.837
328.922
328.76
328.859
328.487
328.586
328.286
328.379
328.122
328.189
328.577
328.711
328.753
328.937
329
329.169
329.162
329.379
327.841
327.485
327.907
327.574
328.012
327.669
328.121
327.796
328.388
328.189
328.573
328.32
327.89
328.1
328.969
329.291
329.15
329.391
329.356
329.63
329.569
329.778
328.605
328.939
328.798
329.052
328.313
328.635
327.075
326.827
327.243
326.984
327.26
326.948
327.463
327.175
327.523
327.102
327.839
327.446
328.088
327.698
328.375
327.977
328.684
328.744
328.962
328.994
329.244
329.318
329.469
329.543
328.473
328.409
328.15
328.145
329.199
329.202
329.415
329.376
329.673
329.733
329.865
329.896
328.739
328.628
328.978
328.807
327.991
327.52
327.827
327.302
327.646
327.166
327.554
327.011
328.279
327.818
328.053
327.537
328.536
328.079
328.233
327.723
326.489
325.952
326.402
325.872
326.661
326.159
326.498
325.992
326.94
326.551
326.655
326.237
328.295
328.951
327.698
327.249
326.762
328.849
328.155
327.442
326.964
326.442
329.035
328.417
327.819
327.253
326.699
325.456
325.203
325.202
324.978
325.713
325.423
325.375
325.133
326.149
325.822
325.667
325.38
328.683
328.408
327.926
327.56
327.227
326.851
326.673
326.303
325.948
325.583
328.91
328.686
328.218
327.839
327.571
327.144
326.929
326.472
326.125
325.65
328.56
328.14
328.866
328.492
329.241
329.102
329.517
329.43
328.177
327.691
327.879
327.362
329.126
328.752
329.297
328.939
329.74
329.657
329.902
329.836
328.447
327.953
328.619
328.136
327.395
326.817
326.434
325.743
327.154
326.545
326.269
325.589
327.617
327.057
326.59
325.912
327.825
327.26
326.807
326.163
325.105
324.978
324.766
325.064
324.997
324.801
325.272
325.118
324.892
325.19
325.11
324.899
325.601
325.404
325.151
325.376
325.265
325.027
328.071
327.689
327.287
327.165
326.829
326.474
326.485
326.192
325.878
326
325.749
325.45
325.525
325.377
325.098
328.37
327.939
327.482
327.331
326.883
326.435
326.627
326.228
325.825
326.062
325.751
325.393
325.538
325.349
325.027
329.749
329.887
329.874
330.053
329.411
329.58
329.553
329.764
329.792
330.06
329.825
330.073
329.882
330.12
329.943
330.166
330.143
330.022
330.221
330.079
330.178
330.278
330.195
330.36
329.934
330.117
330.226
330.386
330.338
330.488
330.339
330.495
330.332
330.573
330.285
330.509
330.377
330.622
330.368
330.592
330.418
330.683
330.489
330.728
330.543
330.749
330.676
330.841
330.063
330.181
330.228
330.358
329.708
329.81
329.898
330.008
330.456
330.611
330.311
330.455
330.387
330.511
330.544
330.645
330.077
330.178
330.25
330.327
330.597
330.747
330.742
330.867
330.647
330.849
330.775
330.891
330.529
330.75
330.639
330.776
330.763
330.938
330.895
330.99
330.89
331.033
331.001
331.076
330.311
330.182
330.544
330.412
330.321
330.183
330.564
330.426
330.333
330.21
330.596
330.472
329.935
329.512
330.199
330.41
330.634
329.417
329.835
330.078
330.286
330.525
329.597
330.01
330.306
330.505
330.662
329.964
329.668
330.192
329.904
329.985
329.702
330.229
329.952
330.036
329.766
330.299
330.041
329.292
329.06
329.735
329.498
329.986
329.744
330.181
329.935
330.408
330.163
329.517
329.375
329.939
329.796
330.227
330.059
330.411
330.207
330.549
330.301
330.197
330.134
330.378
330.361
329.813
329.762
330.028
330.036
330.601
330.526
330.445
330.331
330.518
330.537
330.651
330.683
330.195
330.237
330.344
330.402
330.728
330.684
330.847
330.815
330.735
330.597
330.788
330.584
330.593
330.421
330.677
330.447
330.851
330.744
330.884
330.704
330.951
330.855
330.972
330.814
329.267
328.87
328.498
329.411
328.963
328.589
329.325
328.923
328.542
329.479
329.027
328.637
329.411
329.016
328.628
329.588
329.114
328.697
328.75
328.368
327.959
329.18
328.784
328.365
329.42
329.006
328.579
329.592
329.177
328.762
329.707
329.207
328.752
329.122
328.704
328.238
329.531
329.104
328.634
329.758
329.305
328.821
329.856
329.38
328.89
329.823
329.297
328.796
330.664
330.481
330.024
329.199
330.587
330.392
329.92
329.089
330.7
330.509
330.05
329.217
330.652
330.443
329.966
329.132
330.744
330.543
330.102
329.293
330.764
330.539
330.069
329.242
330.752
330.503
329.999
329.153
330.803
330.525
330.001
329.148
330.849
330.609
330.148
329.328
330.834
330.578
330.154
329.415
330.774
330.559
330.142
329.381
330.751
330.52
330.127
329.431
330.909
330.646
330.149
329.298
330.905
330.628
330.179
329.422
330.972
330.685
330.17
329.323
330.969
330.671
330.209
329.454
330.651
330.487
330.07
329.293
330.543
330.404
330.047
329.367
330.661
330.492
330.08
329.308
330.548
330.402
330.047
329.374
330.675
330.495
330.097
329.347
330.571
330.41
330.055
329.389
330.679
330.486
330.106
329.399
330.593
330.416
330.064
329.417
330.669
330.461
330.098
329.449
330.378
330.26
329.938
329.449
330.192
330.088
329.759
329.3
330.398
330.27
329.946
329.458
330.213
330.097
329.764
329.303
330.436
330.29
329.958
329.467
330.252
330.116
329.774
329.312
330.492
330.321
329.981
329.487
330.303
330.142
329.79
329.323
330.563
330.361
330.008
329.508
330.364
330.173
329.807
329.335
330.699
330.438
330.046
329.527
330.519
330.263
329.864
329.374
330.632
330.399
330.026
329.516
330.442
330.217
329.835
329.355
330.759
330.475
330.065
329.536
330.59
330.306
329.89
329.394
330.818
330.513
330.09
329.557
330.656
330.347
329.918
329.416
327.961
326.968
326.128
325.448
324.929
327.897
326.916
326.079
325.401
324.882
327.969
326.973
326.131
325.45
324.931
327.911
326.926
326.086
325.407
324.888
327.984
326.979
326.135
325.454
324.934
327.957
326.964
326.122
325.441
324.921
327.932
326.939
326.096
325.414
324.894
327.948
326.95
326.104
325.421
324.9
327.993
326.984
326.138
325.456
324.936
327.942
326.912
326.063
325.382
324.863
327.981
326.966
326.12
325.439
324.919
327.925
326.894
326.047
325.367
324.848
327.995
326.985
326.137
325.454
324.933
327.937
326.904
326.055
325.373
324.853
328.011
326.996
326.145
325.46
324.939
327.941
326.903
326.052
325.369
324.849
327.955
326.946
326.104
325.424
324.905
327.88
326.858
326.017
325.339
324.822
327.956
326.944
326.1
325.421
324.902
327.881
326.857
326.015
325.337
324.82
327.955
326.937
326.092
325.412
324.893
327.881
326.853
326.01
325.332
324.814
327.933
326.905
326.059
325.379
324.86
327.869
326.838
325.994
325.316
324.798
327.889
326.858
326.012
325.333
324.815
324.111
323.961
324.186
324.032
324.317
324.145
324.484
324.282
324.655
324.418
324.929
324.658
324.791
324.524
325.064
324.804
325.202
324.967
322.512
320.778
319.336
318.224
317.472
322.536
320.791
319.333
318.215
317.45
322.546
320.796
319.347
318.232
317.479
322.567
320.804
319.343
318.218
317.455
322.611
320.833
319.37
318.249
317.493
322.63
320.839
319.366
318.234
317.468
322.7
320.885
319.405
318.274
317.514
322.711
320.887
319.397
318.257
317.488
322.805
320.951
319.45
318.308
317.542
322.799
320.943
319.435
318.286
317.512
323.03
321.114
319.569