/*--------------------------------*- C++ -*----------------------------------*\
  =========                 |
  \\      /  F ield         | OpenFOAM: The Open Source CFD Toolbox
   \\    /   O peration     | Website:  https://openfoam.org
    \\  /    A nd           | Version:  13
     \\/     M anipulation  |
\*---------------------------------------------------------------------------*/
FoamFile
{
    format      ascii;
    class       volScalarField;
    location    "409.831886";
    object      T;
}
// * * * * * * * * * * * * * * * * * * * * * * * * * * * * * * * * * * * * * //

dimensions      [0 0 0 1 0 0 0];

internalField   nonuniform List<scalar> 
5712
(
368.619
369.331
370.449
371.536
372.716
373.895
375.287
376.345
374.055
375.278
372.001
373.169
370.282
371.313
368.84
369.614
374.084
375.818
376.076
378.45
377.355
379.506
379.347
382.134
367.159
364.561
367.865
365.351
368.989
366.441
370.109
367.589
373.227
371.12
375.336
372.625
368.747
370.791
378.419
382.088
380.89
383.692
381.613
384.944
384.482
387.054
375.47
379.102
377.76
380.589
372.887
376.343
361.557
359.418
362.731
360.414
363.404
360.703
364.906
362.292
366.109
362.519
368.859
365.266
371.225
367.541
374.233
370.344
376.097
376.985
379.214
379.871
380.543
381.464
383.352
384.259
375.13
375.193
371.819
372.342
381.946
382.301
384.491
384.352
385.896
386.619
388.297
388.632
377.987
377.61
380.654
379.631
371.038
366.784
370.491
366.053
367.792
363.711
367.738
363.338
373.894
369.538
372.831
368.319
376.607
372.133
374.774
370.207
356.989
352.985
356.266
352.478
358.61
354.687
357.277
353.558
361.227
357.99
358.963
355.795
372.11
377.012
367.575
364.242
360.406
375.712
370.543
365.049
361.616
357.814
378.047
373.43
369.005
364.811
360.554
349.345
346.971
348.071
346.052
351.214
348.488
349.382
347.194
354.614
351.459
351.74
349.13
373.691
370.33
368.156
364.148
362.983
359.1
359.103
355.467
354.296
351.029
376.457
373.608
371.316
367.304
366.617
362.363
362.04
357.744
356.435
352.308
375.121
370.733
378.417
374.388
380.342
377.987
383.538
381.567
373.092
368.448
369.994
365.116
381.224
377.181
383.209
379.289
386.143
384.183
388.114
386.297
375.879
371.145
377.801
373.141
367.182
362.235
360.2
354.897
364.65
359.443
358.361
353.107
369.453
364.643
361.869
356.654
371.57
366.647
363.904
358.885
345.156
343.209
340.998
345.17
343.506
341.371
346.33
344.149
341.789
346.112
344.3
341.989
348.724
346.152
343.505
347.569
345.39
342.788
366.281
361.95
357.614
359.705
355.843
352.067
355.041
351.535
348.179
351.935
348.749
345.578
348.838
346.17
343.126
369.604
364.506
359.421
361.763
356.721
352.002
356.786
352.152
347.914
352.901
348.872
345.048
349.121
345.901
342.414
383.1
384.971
384.814
387.285
380.514
382.712
382.383
385.19
381.891
384.247
382.396
384.521
383.267
385.3
384.117
385.945
386.973
385.294
388.361
386.29
386.486
387.889
389.249
391.525
387.413
389.802
388.225
390.618
390.034
392.15
388.837
391.129
386.783
389.01
386.337
388.181
387.618
389.765
387.618
389.372
388.657
390.818
389.82
391.498
390.72
391.893
392.642
393.256
386.909
388.338
389.307
390.794
384.203
385.38
386.788
388.007
390.914
392.689
388.714
390.465
391.538
392.885
393.708
394.697
389.169
390.24
391.446
392.169
392.959
394.598
395.017
396.261
392.17
393.327
393.695
393.914
390.347
391.867
391.729
392.271
393.898
394.647
395.401
395.329
395.747
396.057
396.887
396.556
385.834
383.89
388.461
386.614
386.245
384.197
388.845
386.931
386.915
385.078
389.478
387.77
384.67
381.327
386.681
388.467
390.211
380.053
383.279
384.88
386.646
388.7
382.427
385.777
388.21
389.758
390.65
381.061
377.441
383.777
380.225
381.577
378.054
384.373
380.954
382.689
379.266
385.517
382.296
378.321
375.255
381.771
378.576
383.576
380.346
385.166
381.902
387.174
384.075
381.18
378.993
384.602
382.356
386.959
384.485
388.359
385.513
389.147
385.941
388.031
386.437
390.51
389.329
384.921
383.406
387.689
386.659
392.14
390.439
389.934
387.873
392.47
391.587
394.23
393.472
389.883
389.116
391.775
391.163
393.961
392.529
395.58
394.253
392.806
390.501
392.432
389.557
390.837
388.178
390.911
387.785
394.445
392.452
393.755
391.141
395.871
393.954
395.012
392.656
372.72
368.174
364.004
374.389
369.2
364.963
373.557
368.909
364.61
375.322
370.054
365.594
374.956
370.312
365.868
376.849
371.258
366.443
371.372
366.897
362.307
374.569
369.878
365.097
376.275
371.344
366.428
377.6
372.594
367.714
378.502
372.532
367.227
375.491
370.332
364.925
378.701
373.357
367.777
380.448
374.797
369.003
380.943
375.05
369.207
380.027
373.672
367.794
389.226
386.358
380.8
372.021
388.182
385.188
379.55
370.83
389.731
386.727
381.106
372.214
389.084
385.876
380.118
371.287
390.407
387.195
381.721
373.012
390.725
387.22
381.429
372.532
390.581
386.758
380.62
371.617
391.337
387.11
380.714
371.659
391.977
388.176
382.371
373.446
391.786
387.696
382.261
374.133
390.889
387.415
382.155
373.879
390.599
386.863
381.83
374.196
392.878
388.749
382.49
373.212
392.825
388.426
382.647
374.258
393.805
389.343
382.845
373.566
393.745
389.066
383.085
374.663
388.997
386.361
381.221
372.871
387.487
385.149
380.7
373.34
389.164
386.425
381.328
373.022
387.584
385.138
380.703
373.412
389.408
386.481
381.499
373.403
387.957
385.272
380.8
373.575
389.527
386.354
381.552
373.871
388.311
385.369
380.914
373.848
389.423
386.014
381.376
374.249
385.224
383.152
379.103
373.534
382.723
380.834
376.717
371.379
385.535
383.317
379.223
373.652
383.039
380.986
376.805
371.438
386.103
383.608
379.396
373.776
383.592
381.247
376.942
371.552
386.916
384.044
379.705
374.026
384.337
381.624
377.162
371.706
387.943
384.614
380.079
374.289
385.194
382.055
377.399
371.854
389.869
385.726
380.642
374.57
387.329
383.302
378.173
372.363
388.925
385.165
380.346
374.412
386.271
382.673
377.781
372.111
390.721
386.249
380.924
374.736
388.309
383.9
378.543
372.652
391.547
386.791
381.292
375.029
389.22
384.486
378.93
372.95
360.245
351.387
344.329
338.946
335.069
359.592
350.909
343.927
338.592
334.748
360.34
351.435
344.357
338.965
335.084
359.734
350.995
343.985
338.635
334.784
360.509
351.51
344.401
338.996
335.109
360.244
351.378
344.297
338.902
335.022
360.016
351.163
344.093
338.711
334.844
360.223
351.3
344.185
338.776
334.895
360.64
351.583
344.445
339.024
335.131
360.097
350.912
343.825
338.467
334.623
360.492
351.402
344.287
338.889
335.01
359.903
350.74
343.684
338.348
334.517
360.685
351.606
344.45
339.019
335.12
360.064
350.856
343.762
338.403
334.56
360.899
351.739
344.537
339.08
335.168
360.146
350.877
343.756
338.385
334.538
360.152
351.168
344.117
338.757
334.898
359.348
350.344
343.386
338.109
334.311
360.181
351.162
344.102
338.739
334.88
359.376
350.349
343.383
338.103
334.305
360.185
351.106
344.036
338.673
334.818
359.384
350.322
343.348
338.066
334.269
359.966
350.824
343.77
338.431
334.596
359.273
350.195
343.224
337.951
334.162
359.504
350.391
343.385
338.088
334.283
341.833
340.834
342.454
341.434
343.633
342.467
345.201
343.758
346.917
345.131
349.905
347.931
348.459
346.478
351.235
349.379
352.53
350.864
333.619
325.564
319.454
315.104
312.32
333.646
325.568
319.408
315.049
312.234
333.905
325.703
319.528
315.149
312.351
333.924
325.692
319.484
315.078
312.26
334.485
325.995
319.689
315.246
312.42
334.482
325.972
319.637
315.17
312.325
335.286
326.414
319.925
315.39
312.522
335.215
326.355
319.851
315.3
312.416
336.247
326.945
320.232
315.579
312.656
336.031
326.805
320.111
315.462
312.531
338.308
328.209
321.014
316.087
313.03
337.997
327.989
320.836
315.931
312.881
337.287
327.566
320.608
315.819
312.83
336.969
327.351
320.436
315.668
312.683
339.283
328.846
321.427
316.364
313.239
339.068
328.685
321.287
316.234
313.11
340.233
329.482
321.847
316.649
313.453
340.151
329.391
321.76
316.555
313.345
389.116
387.378
384.375
386.357
379.945
380.525
381.017
381.826
380.818
381.844
378.31
379.406
376.285
377.524
378.056
379.153
378.496
379.321
378.236
378.872
385.498
384.467
370.675
366.441
365.697
365.031
368.737
377.427
373.308
375.945
369.18
363.994
372.871
372.688
368.278
371.011
369.762
368.613
380.273
378.076
374.111
374.382
376.34
376.627
374.645
373.214
368.423
368.85
371.654
372.115
383.756
382.721
381.695
380.568
378.511
379.584
374.468
370.575
374.912
390.014
391.927
392.332
391.366
389.043
388.179
389.985
390.365
389.249
386.495
373.332
374.481
374.444
373.181
370.68
368.905
369.94
369.855
368.627
366.254
368.154
369.201
369.143
367.948
365.609
367.444
368.456
368.374
367.172
364.848
371.313
372.419
372.37
371.131
368.692
382.038
384.47
385.452
385.025
383.264
378.038
380.616
381.675
381.305
379.443
379.572
381.589
382.308
381.55
379.153
373.488
375.922
376.845
376.368
374.331
367.953
370.332
371.222
370.785
368.874
375.936
377.486
377.806
376.776
374.316
376.038
377.866
378.444
377.608
375.24
371.393
373.083
373.594
372.775
370.525
373.889
375.283
375.483
374.393
371.957
372.696
374.177
374.477
373.48
371.116
371.372
372.695
372.864
371.791
369.426
384.72
386.817
387.55
386.905
384.894
381.506
383.302
383.794
382.834
380.289
377.127
378.598
378.827
377.711
375.184
377.332
378.721
378.866
377.682
375.118
379.481
381.029
381.304
380.191
377.611
379.679
381.125
381.294
380.094
377.466
377.518
378.811
378.858
377.595
374.989
376.032
377.302
377.347
376.104
373.545
371.061
372.248
372.287
371.12
368.72
371.463
372.609
372.6
371.388
368.958
374.479
375.799
375.917
374.756
372.273
374.908
376.177
376.239
375.028
372.51
388.151
390.143
390.663
389.802
387.619
386.274
388.028
388.396
387.282
384.56
385.611
387.475
388.028
387.146
384.792
383.872
385.479
385.748
384.574
381.862
381.667
383.177
383.382
382.184
379.509
383.009
384.762
385.205
384.192
381.588
377.35
378.661
378.727
377.481
374.887
373.253
374.429
374.421
373.182
370.694
377.856
379.224
379.341
378.127
375.536
392.338
390.156
392.249
389.855
395.172
392.661
395.233
392.978
392.151
391.984
389.954
390.57
395.136
394.987
392.929
393.653
389.174
385.909
387.161
384.043
389.193
386.285
386.907
384.065
387.054
389.03
388.013
389.346
386.794
384.781
387.357
385.23
388.614
386.352
390.187
387.974
391.719
389.565
384.622
382.411
385.976
383.517
382.32
379.841
382.697
379.596
380.976
378.015
383.095
379.525
381.004
377.811
383.929
379.366
382.389
378.208
380.144
375.968
377.443
373.346
390.915
389.921
389.956
388.931
394.488
393.978
393.52
393.064
386.392
384.241
387.346
385.246
388.47
387.69
386.623
386.153
392.071
391.867
390.308
390.39
384.868
382.998
382.924
381.428
382.456
377.593
379.278
374.358
383.294
378.18
380.189
375.06
380.949
376.283
378.082
373.305
378.95
374.405
376.528
371.876
383.227
382.412
379.919
378.564
383.616
382.91
379.691
378.341
384.174
383.814
379.21
378.068
391.167
394.814
387.518
383.412
377.857
394.928
391.496
387.888
383.642
377.332
394.44
390.479
385.849
380.746
375.329
380.521
379.016
374.063
371.69
381.456
379.949
374.36
371.983
382.839
381.489
374.689
372.289
394.641
393.406
391.008
389.717
387.117
385.892
382.354
381.017
374.001
371.506
394.153
392.695
389.821
387.697
384.871
382.506
379.2
376.673
371.802
368.987
388.447
385.195
387.422
384.118
393.366
391.938
392.376
390.996
381.987
377.982
383.069
379.204
386.436
382.793
384.925
381.093
391.252
389.68
389.8
388.078
381.049
376.665
379.5
374.914
375.589
371.087
367.816
362.803
376.963
372.498
369.45
364.647
374.418
369.812
366.348
361.249
373.26
368.363
365.341
360.333
377.582
375.759
371.417
370.233
378.562
376.56
371.588
370.391
379.885
377.297
371.683
370.197
391.101
387.338
387.368
383.863
383.809
380.701
379.126
376.137
371.033
369.301
390.121
385.992
384.508
380.725
379.55
376.337
374.502
372.014
368.995
367.334
399.424
399.479
397.198
398.104
397.616
397.616
395.36
396.262
400.428
400.901
398.19
398.716
400.431
400.92
398.009
398.575
398.463
400.468
399.017
400.428
400.834
398.849
396.154
393.912
394.372
392.221
395.86
393.408
396.963
394.628
396.272
393.909
400.842
400.064
398.707
398.042
401.016
400.263
398.713
398.181
401.257
400.543
399.589
399.097
397.253
396.953
395.012
395.084
399.608
399.367
398.668
398.635
397.45
397.22
396.497
396.385
399.901
399.87
400.818
400.508
397.262
397.589
395.586
396.277
395.081
395.251
393.374
393.852
398.509
398.923
396.857
397.712
400.433
399.838
400.143
399.236
401.301
400.461
400.692
399.633
399.07
398.76
399.3
398.564
397.477
397.455
398.199
397.647
401.822
401.575
400.909
400.455
401.854
401.556
400.914
400.398
401.771
401.527
400.827
400.357
399.894
397.766
401.09
401.509
400.481
397.741
399.805
400.971
401.361
400.186
397.63
399.687
400.755
400.883
399.713
400.244
397.861
398.927
396.477
400.419
398.172
399.059
396.706
400.646
398.633
399.245
397.076
397.517
396.292
399.57
398.2
400.531
398.973
400.684
398.912
399.261
397.275
397.503
396.427
399.5
398.322
400.404
398.937
400.307
398.465
398.91
396.872
399.2
398.259
398.285
397.555
397.124
396.386
396.089
395.564
399.264
398.036
400.046
398.631
397.065
396.468
395.755
395.068
394.787
394.371
393.396
392.875
398.202
397.053
396.988
395.736
399.161
397.352
397.742
395.523
399.839
397.828
398.378
396.09
398.275
396.532
396.945
394.687
397.192
395.34
396.067
393.796
394.941
392.152
392.922
389.776
395.45
392.446
393.181
389.856
395.978
392.577
393.56
389.682
393.969
390.113
395.727
391.818
396.463
392.596
396.208
392.219
393.735
389.152
394.111
389.719
395.832
391.301
396.146
391.514
395.289
390.568
393.007
387.881
396.891
391.482
384.221
374.245
395.103
389.838
382.675
372.879
396.994
391.591
384.33
374.27
395.276
390.048
382.917
373.106
397.059
391.664
384.701
374.898
395.972
390.767
383.837
374.102
394.065
389.123
382.229
372.676
392.595
387.966
381.298
372.05
396.506
391.255
384.49
374.872
395.576
390.288
384.093
375.448
396.814
391.417
384.877
375.663
395.803
390.393
384.258
375.852
395.76
390.717
383.861
374.164
395.149
390.022
383.798
375.124
394.8
390.024
383.321
373.897
394.532
389.609
383.479
374.965
397.507
391.999
384.979
375.326
396.756
391.209
384.746
376.044
397.386
391.882
384.954
375.362
396.572
391.029
384.627
376.016
397.091
391.599
384.902
375.573
396.322
390.79
384.472
375.987
396.521
391.035
384.689
375.882
395.978
390.458
384.302
376.047
395.738
390.258
384.252
376.161
394.934
389.409
383.265
376.561
392.531
387.078
380.891
374.514
394.922
389.393
383.272
376.591
392.507
387.048
380.866
374.49
394.844
389.315
383.196
376.518
392.418
386.952
380.778
374.442
394.73
389.201
383.156
376.497
392.306
386.832
380.687
374.371
394.528
389.015
383.077
376.473
392.11
386.628
380.527
374.237
393.633
388.287
382.457
375.98
391.444
386.082
380.113
373.861
394.141
388.687
382.787
376.24
391.867
386.417
380.372
374.102
393.007
387.812
382.049
375.638
390.808
385.599
379.735
373.579
392.311
387.315
381.67
375.336
390.043
385.048
379.325
373.259
361.512
352.131
344.771
339.223
335.27
360.79
351.619
344.35
338.858
334.94
361.497
352.113
344.76
339.218
335.267
360.783
351.615
344.354
338.867
334.952
361.532
352.107
344.755
339.218
335.27
361.12
351.895
344.605
339.095
335.162
360.624
351.522
344.307
338.845
334.941
360.454
351.437
344.267
338.827
334.932
361.433
352.045
344.719
339.197
335.255
360.791
351.312
344.062
338.616
334.73
361.425
351.943
344.607
339.089
335.155
360.731
351.216
343.965
338.525
334.645
361.232
351.926
344.64
339.138
335.207
360.536
351.129
343.924
338.504
334.633
361.09
351.851
344.603
339.122
335.199
360.31
350.972
343.813
338.42
334.563
361.477
351.935
344.571
339.042
335.104
360.698
351.116
343.841
338.394
334.518
361.426
351.882
344.528
339.006
335.073
360.665
351.086
343.818
338.375
334.502
361.303
351.75
344.416
338.912
334.991
360.558
350.992
343.742
338.314
334.448
360.958
351.392
344.105
338.641
334.749
360.307
350.784
343.572
338.168
334.32
360.413
350.91
343.692
338.28
334.421
361.718
360.364
361.511
360.131
361.045
359.633
360.306
358.934
359.125
357.968
356.141
354.718
357.505
356.251
354.913
353.351
353.74
352.154
346.61
333.57
324.489
318.424
314.764
346.845
333.665
324.475
318.382
314.676
346.442
333.466
324.424
318.381
314.735
346.634
333.526
324.406
318.315
314.636
346.103
333.257
324.296
318.298
314.674
346.304
333.327
324.285
318.237
314.58
345.572
332.935
324.096
318.167
314.578
345.818
333.036
324.106
318.12
314.494
344.81
332.48
323.811
317.977
314.437
345.188
332.664
323.874
317.967
314.38
342.978
331.349
323.09
317.495
314.083
343.219
331.48
323.131
317.479
314.03
343.909
331.944
323.473
317.752
314.27
344.288
332.145
323.551
317.754
314.227
342.071
330.741
322.689
317.224
313.882
342.172
330.79
322.684
317.182
313.816
341.154
330.111
322.267
316.936
313.668
341.161
330.082
322.222
316.87
313.58
391.96
390.305
392.616
394.377
399.361
397.086
399.39
396.866
397.587
395.016
397.598
395.322
352.017
352.589
353.95
356.105
359.048
362.681
351.962
352.509
353.808
355.834
358.53
361.77
350.92
349.382
351.551
350.08
353.046
351.727
355.443
354.417
358.696
357.938
362.575
361.694
366.733
370.787
374.545
377.925
380.633
382.522
365.338
368.95
372.364
375.379
377.781
379.398
353.904
354.65
354.51
353.483
351.585
354.499
355.255
355.116
354.081
352.163
355.911
356.691
356.554
355.497
353.533
358.148
358.967
358.833
357.742
355.706
361.206
362.08
361.953
360.818
358.684
364.985
365.932
365.82
364.636
362.382
353.848
354.594
354.455
353.431
351.535
354.417
355.174
355.037
354.004
352.09
355.766
356.546
356.411
355.359
353.401
357.871
358.688
358.558
357.474
355.449
360.673
361.542
361.42
360.298
358.183
364.044
364.98
364.873
363.707
361.487
352.768
353.498
353.359
352.353
350.493
351.177
351.885
351.75
350.772
348.966
353.424
354.165
354.027
353.011
351.13
351.901
352.621
352.487
351.499
349.669
354.975
355.742
355.606
354.565
352.633
353.61
354.358
354.225
353.21
351.324
357.463
358.271
358.138
357.059
355.046
356.401
357.196
357.067
356.008
354.031
360.842
361.71
361.584
360.456
358.334
360.059
360.92
360.799
359.688
357.593
364.876
365.822
365.712
364.529
362.28
363.967
364.905
364.801
363.638
361.421
369.208
370.247
370.163
368.931
366.549
373.447
374.595
374.555
373.29
370.784
377.398
378.672
378.698
377.422
374.812
380.982
382.395
382.507
381.244
378.553
383.878
385.414
385.601
384.356
381.608
385.89
387.491
387.706
386.458
383.663
367.763
368.78
368.697
367.49
365.156
371.537
372.648
372.601
371.36
368.915
375.116
376.329
376.329
375.068
372.523
378.289
379.603
379.656
378.387
375.759
380.823
382.221
382.317
381.042
378.349
382.521
383.963
384.075
382.787
380.047
352.232
353.239
355.05
357.68
361.135
365.329
352.176
353.156
354.898
357.382
360.549
364.253
351.139
349.605
352.214
350.758
354.173
352.883
357.066
356.096
360.858
360.168
365.38
364.644
369.944
374.424
378.335
381.365
383.078
383.413
368.226
372.085
375.476
378.08
379.64
380.063
354.126
354.874
354.732
353.701
351.794
355.17
355.932
355.788
354.738
352.796
357.045
357.835
357.689
356.606
354.602
359.771
360.601
360.453
359.324
357.229
363.353
364.239
364.091
362.903
360.69
367.705
368.663
368.518
367.262
364.907
354.07
354.818
354.677
353.647
351.744
355.084
355.847
355.704
354.657
352.719
356.889
357.678
357.534
356.456
354.457
359.465
360.293
360.148
359.027
356.943
362.749
363.63
363.486
362.312
360.12
366.594
367.541
367.403
366.17
363.854
352.994
353.726
353.586
352.575
350.707
351.407
352.118
351.981
350.999
349.184
354.108
354.855
354.713
353.682
351.776
352.601
353.328
353.189
352.185
350.331
356.137
356.913
356.768
355.702
353.728
354.802
355.56
355.419
354.376
352.448
359.135
359.956
359.809
358.691
356.617
358.131
358.939
358.794
357.695
355.655
363.066
363.947
363.798
362.615
360.411
362.352
363.225
363.078
361.909
359.729
367.756
368.712
368.565
367.306
364.948
366.994
367.94
367.795
366.55
364.217
372.499
373.544
373.41
372.085
369.576
377.165
378.307
378.2
376.819
374.166
381.261
382.512
382.452
381.043
378.274
384.473
385.849
385.865
384.468
381.626
386.35
387.847
387.953
386.604
383.743
386.789
388.372
388.555
387.267
384.429
370.724
371.748
371.622
370.332
367.885
374.745
375.855
375.754
374.418
371.847
378.294
379.497
379.434
378.071
375.398
381.041
382.338
382.328
380.963
378.221
382.712
384.093
384.14
382.796
380.023
383.196
384.63
384.724
383.41
380.64
387.082
385.697
374.846
369.907
369.9
368.656
372.996
390.188
388.685
387.128
384.389
381.485
383.339
378.505
378.283
375.937
389.881
386.813
381.698
380.952
383.816
382.73
379.385
378.612
374.328
374.012
378.262
377.984
388.391
386.093
388.601
385.229
384.051
386.835
379.779
375.453
380.92
391.591
393.4
393.714
392.65
390.209
389.409
391.173
391.497
390.315
387.496
377.593
378.73
378.61
377.212
374.541
372.456
373.493
373.353
372.024
369.513
372.452
373.493
373.357
372.031
369.521
371.157
372.172
372.029
370.719
368.251
375.666
376.761
376.629
375.253
372.639
394.338
395.897
396.026
394.749
392.22
392.693
394.133
394.159
392.809
390.166
390.558
392.092
392.184
390.773
387.795
388.049
389.337
389.271
387.875
385.077
384.542
385.854
385.803
384.353
381.484
386.531
387.919
387.918
386.484
383.581
381.421
382.654
382.573
381.146
378.365
381.205
382.45
382.383
380.972
378.205
378.749
379.931
379.841
378.449
375.752
394.041
395.648
395.809
394.55
391.995
390.196
391.715
391.793
390.37
387.387
384.754
386.064
386.008
384.549
381.67
383.969
385.254
385.186
383.728
380.868
386.989
388.373
388.358
386.9
383.968
385.845
387.194
387.163
385.706
382.801
382.339
383.594
383.52
382.084
379.274
381.517
382.738
382.641
381.198
378.406
377.06
378.194
378.08
376.696
374.043
376.724
377.843
377.717
376.329
373.684
381.157
382.374
382.281
380.847
378.068
380.862
382.067
381.965
380.529
377.756
392.755
394.464
394.721
393.575
391.065
389.653
391.313
391.534
390.249
387.354
392.455
394.045
394.243
392.962
390.233
388.566
390.079
390.177
388.789
385.858
387.26
388.677
388.694
387.257
384.328
390.246
391.796
391.915
390.526
387.557
382.743
384
383.922
382.476
379.65
378.224
379.371
379.251
377.844
375.151
383.937
385.224
385.158
383.702
380.845
378.79
381.56
382.956
382.996
381.719
378.753
393.167
393.001
396.018
396.12
392.772
392.36
395.805
395.423
389.892
386.399
389.87
386.794
389.528
389.626
387.384
393.425
393.208
396.26
396.415
392.909
392.432
395.961
395.458
389.944
386.393
389.893
386.791
389.506
389.617
387.319
393.533
393.251
396.355
396.58
392.856
392.279
395.942
395.326
389.965
385.649
389.851
386.085
389.352
389.401
386.639
392.646
392.315
395.421
395.701
391.808
391.052
394.917
394.147
388.878
384.236
388.738
384.646
388.158
388.136
385.249
390.786
390.43
393.451
393.759
389.85
388.927
392.9
392.056
387.013
382.597
386.849
382.883
386.244
386.059
383.437
387.356
387.003
389.862
390.175
386.448
385.606
389.301
388.478
383.915
380.044
383.775
380.275
383.219
383.062
380.797
400.25
400.228
398.451
398.504
400.083
399.865
398.281
397.964
401.28
401.852
401.204
401.768
401.098
400.857
401.498
400.54
400.454
398.696
398.807
400.217
399.897
398.433
398.03
401.621
401.96
401.464
401.787
401.212
400.862
401.435
400.681
400.512
398.792
398.978
400.153
399.714
398.407
397.859
401.539
401.271
401.303
401.103
400.885
400.478
400.754
399.713
399.479
397.824
398.071
399.012
398.413
397.344
396.681
400.326
399.524
400.028
399.349
399.46
398.937
399.012
397.623
397.354
395.778
396.055
396.79
396.031
395.253
394.507
398.016
396.975
397.683
396.823
397.048
396.428
396.549
393.808
393.531
392.063
392.348
392.972
392.279
391.524
390.785
394.201
393.567
393.889
393.386
393.333
392.803
393.105
368.496
369.17
370.425
371.515
372.698
373.878
375.273
376.332
374.04
375.264
371.981
373.151
370.257
371.29
368.697
369.433
374.071
375.81
376.065
378.442
377.344
379.499
379.337
382.127
367.061
364.484
367.731
365.241
368.97
366.426
370.095
367.579
373.217
371.108
375.328
372.616
368.736
370.782
378.411
382.083
380.884
383.688
381.607
384.939
384.477
387.05
375.463
379.097
377.754
380.585
372.881
376.339
361.49
359.355
362.632
360.321
363.395
360.695
364.9
362.287
366.101
362.513
368.853
365.26
371.219
367.537
374.229
370.341
376.091
376.981
379.208
379.867
380.537
381.46
383.347
384.255
375.124
375.189
371.813
372.337
381.941
382.298
384.488
384.349
385.892
386.616
388.294
388.629
377.982
377.607
380.651
379.629
371.033
366.78
370.487
366.05
367.787
363.706
367.734
363.334
373.89
369.534
372.828
368.316
376.604
372.13
374.771
370.204
356.918
352.917
356.213
352.431
358.607
354.685
357.27
353.553
361.222
357.987
358.958
355.791
372.106
377.008
367.57
364.238
360.402
375.709
370.54
365.045
361.613
357.81
378.044
373.426
369.001
364.807
360.55
349.284
346.915
348.033
346.022
351.213
348.489
349.38
347.193
354.612
351.458
351.737
349.128
373.688
370.327
368.153
364.146
362.979
359.098
359.1
355.464
354.294
351.027
376.454
373.605
371.313
367.301
366.614
362.36
362.037
357.741
356.432
352.306
375.117
370.73
378.414
374.385
380.339
377.984
383.534
381.564
373.089
368.446
369.991
365.113
381.221
377.179
383.206
379.287
386.14
384.18
388.112
386.295
375.876
371.143
377.799
373.139
367.179
362.233
360.198
354.895
364.646
359.44
358.358
353.104
369.451
364.641
361.867
356.652
371.568
366.645
363.902
358.883
345.11
343.169
340.962
345.142
343.482
341.349
346.331
344.149
341.789
346.11
344.298
341.987
348.724
346.151
343.505
347.567
345.388
342.786
366.279
361.948
357.613
359.703
355.841
352.065
355.039
351.534
348.177
351.934
348.748
345.576
348.836
346.168
343.124
369.602
364.504
359.42
361.761
356.719
352
356.784
352.15
347.913
352.899
348.87
345.046
349.118
345.899
342.411
383.094
384.966
384.808
387.28
380.506
382.706
382.375
385.185
381.816
384.176
382.29
384.421
383.26
385.295
384.115
385.943
386.97
385.289
388.357
386.285
386.482
387.886
389.245
391.522
387.409
389.799
388.222
390.616
390.031
392.147
388.835
391.127
386.724
388.968
386.248
388.11
387.614
389.762
387.616
389.372
388.654
390.815
389.818
391.497
390.718
391.892
392.64
393.255
386.905
388.335
389.303
390.791
384.198
385.376
386.783
388.004
390.911
392.686
388.71
390.462
391.535
392.883
393.706
394.695
389.166
390.237
391.443
392.167
392.956
394.595
395.015
396.259
392.167
393.325
393.692
393.912
390.344
391.865
391.726
392.27
393.896
394.646
395.399
395.327
395.745
396.055
396.886
396.555
385.793
383.859
388.438
386.6
386.243
384.196
388.842
386.928
386.912
385.076
389.475
387.768
384.667
381.323
386.678
388.464
390.208
380.05
383.276
384.878
386.644
388.698
382.423
385.774
388.207
389.756
390.648
381.037
377.414
383.768
380.213
381.576
378.054
384.371
380.952
382.688
379.265
385.515
382.294
378.319
375.253
381.768
378.573
383.573
380.343
385.164
381.9
387.172
384.073
381.177
378.991
384.599
382.354
386.957
384.483
388.356
385.511
389.145
385.938
388.028
386.434
390.507
389.326
384.918
383.404
387.686
386.657
392.138
390.437
389.932
387.871
392.467
391.585
394.228
393.47
389.881
389.114
391.773
391.161
393.959
392.527
395.578
394.251
392.804
390.499
392.431
389.555
390.835
388.175
390.909
387.783
394.443
392.45
393.753
391.14
395.87
393.952
395.011
392.655
372.691
368.143
363.974
374.377
369.182
364.944
373.558
368.91
364.611
375.319
370.052
365.592
374.955
370.311
365.868
376.847
371.256
366.441
371.37
366.895
362.305
374.567
369.877
365.095
376.274
371.342
366.427
377.599
372.592
367.713
378.5
372.53
367.225
375.489
370.33
364.923
378.699
373.355
367.775
380.446
374.795
369.001
380.941
375.048
369.205
380.024
373.67
367.792
389.197
386.337
380.779
371.998
388.127
385.143
379.51
370.793
389.729
386.726
381.106
372.215
389.084
385.877
380.12
371.291
390.405
387.194
381.721
373.012
390.724
387.22
381.429
372.534
390.58
386.758
380.621
371.618
391.336
387.11
380.714
371.66
391.976
388.175
382.371
373.446
391.784
387.695
382.261
374.133
390.887
387.414
382.154
373.879
390.598
386.861
381.829
374.196
392.877
388.748
382.49
373.213
392.824
388.425
382.647
374.258
393.804
389.343
382.845
373.566
393.744
389.066
383.085
374.664
388.986
386.355
381.214
372.858
387.484
385.151
380.702
373.337
389.161
386.423
381.327
373.022
387.582
385.136
380.701
373.412
389.406
386.479
381.498
373.403
387.955
385.271
380.799
373.574
389.525
386.353
381.551
373.871
388.309
385.368
380.914
373.848
389.422
386.013
381.375
374.249
385.23
383.163
379.113
373.538
382.729
380.846
376.731
371.392
385.533
383.315
379.222
373.651
383.037
380.984
376.803
371.436
386.101
383.606
379.395
373.776
383.59
381.246
376.941
371.551
386.914
384.043
379.704
374.025
384.336
381.622
377.161
371.705
387.941
384.613
380.078
374.288
385.192
382.054
377.399
371.853
389.868
385.725
380.642
374.57
387.328
383.301
378.172
372.362
388.924
385.164
380.345
374.411
386.27
382.672
377.78
372.11
390.72
386.249
380.924
374.735
388.308
383.899
378.543
372.651
391.546
386.791
381.292
375.029
389.219
384.485
378.93
372.95
360.237
351.384
344.327
338.945
335.069
359.571
350.895
343.916
338.583
334.74
360.34
351.435
344.358
338.966
335.085
359.737
350.998
343.988
338.638
334.787
360.51
351.511
344.402
338.997
335.11
360.246
351.38
344.299
338.904
335.024
360.017
351.164
344.094
338.712
334.845
360.224
351.302
344.186
338.777
334.896
360.641
351.584
344.446
339.026
335.132
360.097
350.912
343.826
338.468
334.623
360.493
351.403
344.288
338.89
335.01
359.904
350.741
343.685
338.349
334.518
360.686
351.607
344.451
339.02
335.121
360.065
350.857
343.763
338.404
334.561
360.9
351.74
344.538
339.081
335.17
360.146
350.878
343.757
338.386
334.539
360.155
351.173
344.123
338.762
334.903
359.356
350.354
343.395
338.117
334.319
360.18
351.162
344.102
338.739
334.88
359.374
350.348
343.383
338.103
334.305
360.185
351.106
344.036
338.674
334.819
359.383
350.322
343.348
338.066
334.27
359.966
350.824
343.77
338.432
334.597
359.273
350.195
343.225
337.951
334.163
359.504
350.391
343.386
338.088
334.283
341.802
340.812
342.453
341.432
343.631
342.465
345.199
343.756
346.915
345.128
349.903
347.929
348.457
346.476
351.233
349.377
352.528
350.862
333.603
325.556
319.448
315.101
312.317
333.637
325.565
319.407
315.049
312.234
333.904
325.703
319.528
315.148
312.351
333.922
325.691
319.483
315.077
312.259
334.483
325.994
319.688
315.245
312.42
334.48
325.971
319.636
315.169
312.324
335.284
326.413
319.924
315.389
312.521
335.214
326.354
319.85
315.299
312.415
336.245
326.944
320.231
315.579
312.656
336.03
326.804
320.111
315.461
312.531
338.307
328.208
321.013
316.086
313.03
337.995