/*--------------------------------*- C++ -*----------------------------------*\
  =========                 |
  \\      /  F ield         | OpenFOAM: The Open Source CFD Toolbox
   \\    /   O peration     | Website:  https://openfoam.org
    \\  /    A nd           | Version:  13
     \\/     M anipulation  |
\*---------------------------------------------------------------------------*/
FoamFile
{
    format      ascii;
    class       volScalarField;
    location    "469.831886";
    object      T;
}
// * * * * * * * * * * * * * * * * * * * * * * * * * * * * * * * * * * * * * //

dimensions      [0 0 0 1 0 0 0];

internalField   nonuniform List<scalar> 
5712
(
397.957
398.174
398.53
398.863
399.373
399.714
400.521
400.803
400.264
400.591
399.361
399.689
398.695
399.001
398.188
398.42
399.658
400.1
400.24
400.851
401.059
401.622
401.6
402.319
397.239
396.049
397.469
396.353
397.784
396.643
398.143
397.061
399.031
398.368
399.643
398.804
397.374
398.073
400.96
402.028
401.559
402.359
402.242
403.153
402.951
403.644
399.751
400.857
400.391
401.233
398.778
399.85
394.684
393.86
395.251
394.392
395.282
394.247
395.955
394.999
396.155
394.757
397.205
395.899
398.031
396.736
398.985
397.664
400.011
400.212
400.936
401.042
401.869
402.115
402.618
402.864
399.31
399.098
398.237
398.221
401.724
401.733
402.44
402.311
403.296
403.496
403.934
404.037
400.196
399.827
400.989
400.421
397.711
396.144
397.166
395.422
396.565
394.97
396.258
394.454
398.666
397.134
397.917
396.201
399.519
398.003
398.514
396.82
392.739
390.957
392.444
390.685
393.29
391.622
392.75
391.067
394.217
392.925
393.272
391.882
398.717
400.897
396.734
395.244
393.625
400.558
398.254
395.885
394.297
392.563
401.175
399.122
397.136
395.259
393.418
389.313
388.47
388.457
387.712
390.141
389.174
389.019
388.214
391.59
390.503
389.989
389.034
400.004
399.091
397.491
396.274
395.17
393.918
393.33
392.1
390.922
389.708
400.759
400.013
398.461
397.203
396.312
394.893
394.181
392.663
391.509
389.933
399.599
398.202
400.615
399.373
401.86
401.398
402.777
402.486
398.327
396.712
397.337
395.62
401.478
400.235
402.046
400.859
403.518
403.239
404.058
403.835
399.224
397.582
399.795
398.191
395.731
393.809
392.538
390.243
394.928
392.905
391.989
389.73
396.466
394.607
393.058
390.803
397.159
395.281
393.776
391.639
388.142
387.717
387.01
387.998
387.771
387.12
388.674
388.161
387.41
388.403
388.137
387.434
389.768
389.11
388.27
389.02
388.65
387.859
397.969
396.7
395.363
394.963
393.845
392.664
392.704
391.728
390.686
391.094
390.259
389.264
389.516
389.022
388.095
398.963
397.531
396.011
395.513
394.025
392.533
393.177
391.849
390.509
391.298
390.265
389.075
389.56
388.929
387.858
403.545
404.003
403.96
404.554
402.423
402.986
402.896
403.597
403.701
404.589
403.817
404.641
403.985
404.775
404.188
404.926
404.851
404.452
405.114
404.64
404.969
405.3
405.026
405.574
404.163
404.769
405.129
405.66
405.502
406.001
405.502
406.021
405.491
406.286
405.342
406.078
405.626
406.44
405.598
406.339
405.764
406.644
406.001
406.791
406.182
406.863
406.623
407.169
404.589
404.98
405.135
405.569
403.411
403.75
404.042
404.407
405.894
406.409
405.411
405.89
405.664
406.077
406.188
406.524
404.637
404.972
405.211
405.467
406.362
406.861
406.844
407.26
406.525
407.196
406.953
407.333
406.133
406.865
406.498
406.952
406.911
407.491
407.351
407.663
407.333
407.806
407.701
407.949
405.415
404.981
406.184
405.741
405.44
404.983
406.248
405.789
405.482
405.071
406.353
405.942
404.161
402.758
405.038
405.739
406.479
402.444
403.829
404.636
405.325
406.118
403.042
404.411
405.394
406.053
406.575
404.257
403.273
405.011
404.055
404.325
403.383
405.133
404.214
404.492
403.598
405.367
404.509
402.027
401.256
403.496
402.709
404.33
403.524
404.977
404.157
405.728
404.915
402.774
402.301
404.177
403.698
405.132
404.571
405.741
405.065
406.197
405.374
405.034
404.824
405.634
405.578
403.759
403.589
404.472
404.497
406.375
406.125
405.855
405.477
406.1
406.163
406.542
406.649
405.029
405.168
405.523
405.715
406.795
406.65
407.193
407.087
406.817
406.36
406.993
406.314
406.345
405.773
406.625
405.86
407.205
406.848
407.313
406.715
407.537
407.217
407.603
407.079
401.942
400.625
399.388
402.419
400.929
399.687
402.131
400.795
399.529
402.642
401.141
399.843
402.418
401.104
399.816
403.006
401.431
400.044
400.225
398.955
397.596
401.653
400.335
398.942
402.45
401.073
399.652
403.019
401.641
400.26
403.401
401.74
400.226
401.46
400.072
398.523
402.817
401.398
399.836
403.571
402.068
400.456
403.896
402.315
400.688
403.785
402.04
400.374
406.583
405.97
404.448
401.704
406.333
405.678
404.106
401.342
406.694
406.058
404.528
401.757
406.536
405.839
404.25
401.474
406.842
406.169
404.7
402.008
406.91
406.158
404.592
401.841
406.869
406.036
404.36
401.544
407.037
406.109
404.364
401.528
407.19
406.39
404.855
402.125
407.14
406.286
404.875
402.415
406.943
406.223
404.834
402.301
406.867
406.094
404.784
402.468
407.392
406.513
404.857
402.026
407.379
406.452
404.958
402.438
407.599
406.642
404.927
402.108
407.589
406.598
405.058
402.546
406.534
405.986
404.598
402.013
406.174
405.706
404.519
402.258
406.566
406
404.63
402.061
406.19
405.702
404.52
402.28
406.613
406.012
404.684
402.188
406.268
405.73
404.545
402.33
406.627
405.981
404.716
402.364
406.342
405.75
404.577
402.423
406.594
405.898
404.688
402.53
405.622
405.226
404.154
402.528
405.005
404.654
403.559
402.03
405.692
405.264
404.183
402.56
405.078
404.689
403.58
402.045
405.819
405.331
404.223
402.588
405.205
404.75
403.612
402.073
406.003
405.432
404.299
402.655
405.377
404.839
403.665
402.113
406.24
405.564
404.39
402.727
405.579
404.94
403.722
402.151
406.693
405.823
404.517
402.788
406.094
405.239
403.91
402.28
406.47
405.692
404.45
402.752
405.837
405.088
403.815
402.217
406.894
405.944
404.579
402.818
406.331
405.382
403.997
402.348
407.088
406.07
404.664
402.888
406.55
405.521
404.089
402.422
397.581
394.278
391.481
389.221
387.495
397.372
394.109
391.323
389.067
387.343
397.606
394.29
391.49
389.228
387.5
397.41
394.133
391.342
389.083
387.358
397.653
394.312
391.503
389.238
387.51
397.563
394.262
391.46
389.196
387.467
397.482
394.178
391.373
389.107
387.379
397.534
394.216
391.401
389.129
387.398
397.685
394.33
391.514
389.246
387.516
397.515
394.087
391.266
389
387.274
397.646
394.27
391.455
389.189
387.461
397.46
394.031
391.212
388.95
387.225
397.69
394.331
391.511
389.24
387.508
397.497
394.062
391.237
388.969
387.242
397.744
394.367
391.537
389.26
387.526
397.512
394.061
391.227
388.955
387.227
397.556
394.2
391.398
389.139
387.414
397.308
393.907
391.107
388.854
387.135
397.562
394.195
391.39
389.129
387.404
397.315
393.908
391.105
388.851
387.131
397.559
394.171
391.36
389.098
387.373
397.313
393.895
391.088
388.833
387.113
397.486
394.066
391.251
388.99
387.265
397.272
393.844
391.035
388.779
387.059
397.339
393.909
391.096
388.837
387.115
384.833
384.33
385.069
384.557
385.504
384.933
386.06
385.388
386.626
385.841
387.538
386.639
387.078
386.194
387.986
387.123
388.446
387.664
379.514
373.755
368.962
365.268
362.768
379.593
373.796
368.951
365.235
362.695
379.622
373.811
368.997
365.294
362.79
379.691
373.838
368.985
365.246
362.711
379.84
373.932
369.075
365.35
362.838
379.901
373.954
369.06
365.3
362.756
380.135
374.105
369.189
365.434
362.908
380.171
374.113
369.164
365.376
362.819
380.482
374.326
369.339
365.546
363.001
380.465
374.299
369.291
365.471
362.9
381.23
374.866
369.735
365.854
363.27
381.149
374.788
369.648
365.752
363.15
380.856
374.589
369.528
365.69
363.125
380.788
374.523
369.45
365.593
363.007
381.602
375.148
369.951
366.027
363.423
381.549
375.092
369.882
365.941
363.319
381.979
375.44
370.177
366.208
363.582
381.979
375.414
370.137
366.147
363.494
404.96
404.167
403.411
404.318
402.974
403.111
403.165
403.352
402.917
403.17
401.849
402.14
401.258
401.587
402.056
402.334
402.358
402.552
402.402
402.553
404.209
404.343
401.504
400.43
400.135
400.011
400.984
401.834
400.653
401.928
399.604
398.077
401.548
401.182
399.982
401.189
400.693
400.553
402.784
402.744
402.008
402.206
402.555
402.77
402.428
402.046
400.714
400.933
401.491
401.714
403.778
403.997
403.476
403.637
403.21
403.192
402.349
401.414
402.391
405.703
406.451
406.752
406.677
406.216
405.466
406.097
406.356
406.215
405.626
402.274
402.628
402.655
402.337
401.659
401.17
401.493
401.493
401.155
400.472
400.883
401.218
401.232
400.906
400.231
400.747
401.069
401.068
400.732
400.052
401.744
402.089
402.109
401.786
401.108
403.459
404.428
404.924
404.998
404.664
402.378
403.422
403.949
404.026
403.643
403.097
403.834
404.21
404.156
403.619
401.197
402.198
402.681
402.711
402.246
399.622
400.643
401.13
401.164
400.701
402.483
403.017
403.216
403.029
402.419
402.261
402.929
403.245
403.144
402.581
401.023
401.663
401.958
401.844
401.278
402.062
402.534
402.678
402.451
401.821
401.615
402.14
402.333
402.143
401.535
401.408
401.863
401.994
401.758
401.128
404.279
405.104
405.507
405.516
405.118
403.785
404.408
404.686
404.56
403.981
402.9
403.388
403.545
403.326
402.697
403.06
403.508
403.625
403.375
402.73
403.475
403.988
404.166
403.962
403.34
403.643
404.106
404.237
403.996
403.353
403.243
403.645
403.717
403.431
402.765
402.854
403.252
403.321
403.034
402.37
401.51
401.899
401.965
401.679
401.022
401.709
402.073
402.114
401.807
401.138
402.327
402.758
402.863
402.605
401.959
402.527
402.93
403.007
402.727
402.068
405.229
405.999
406.33
406.279
405.846
405.054
405.654
405.894
405.738
405.14
404.69
405.379
405.701
405.627
405.133
404.585
405.111
405.297
405.097
404.474
404.108
404.594
404.744
404.518
403.881
404.214
404.813
405.071
404.931
404.344
403.171
403.581
403.662
403.383
402.721
402.194
402.562
402.604
402.298
401.626
403.235
403.67
403.774
403.514
402.863
404.661
404.177
404.623
404.086
405.729
405.167
405.752
405.254
404.58
404.519
404.064
404.171
405.711
405.677
405.195
405.344
403.525
402.407
403.088
402.015
403.519
402.508
403.007
402.016
402.989
403.444
403.236
403.54
402.661
402.202
403.434
402.895
403.679
403.089
404.525
403.959
404.858
404.307
402.382
401.806
402.723
402.065
401.573
400.884
401.375
400.468
401.031
400.167
401.452
400.378
401.01
400.058
401.644
400.197
401.334
400.044
400.752
399.433
399.965
398.625
404.165
403.869
403.919
403.585
405.566
405.459
405.307
405.212
402.582
401.766
402.807
402.06
403.529
403.241
403.03
402.814
404.928
404.893
404.466
404.505
402.185
401.408
401.643
400.948
401.185
399.591
399.877
398.096
401.345
399.632
400.132
398.257
400.798
399.272
399.529
397.799
400.225
398.721
399.052
397.354
401.332
400.843
400.329
399.552
401.418
401.017
400.189
399.442
401.573
401.36
399.934
399.318
404.229
405.675
402.812
401.284
399.332
405.723
404.351
402.938
401.332
399.014
405.59
404.035
402.244
400.286
398.262
400.022
399.628
397.464
396.695
400.409
400.014
397.612
396.844
400.982
400.653
397.79
397.017
405.688
405.461
404.226
403.96
402.695
402.429
400.847
400.511
397.544
396.72
405.576
405.333
403.866
403.333
401.922
401.256
399.673
398.885
396.654
395.664
403.443
402.531
403.184
402.25
405.389
405.26
405.161
405.078
400.995
399.684
401.306
400.062
402.955
401.885
402.531
401.388
404.892
404.747
404.51
404.323
400.763
399.293
400.299
398.74
398.384
396.714
395.081
392.995
398.842
397.219
395.698
393.742
398.025
396.296
394.552
392.403
397.686
395.839
394.252
392.14
399.446
399.083
397.128
397.042
399.822
399.421
397.221
397.162
400.375
399.804
397.31
397.216
404.993
404.171
403.459
402.688
401.989
401.32
400.147
399.514
397.121
397.054
404.853
403.965
402.59
401.775
400.597
399.972
398.584
398.263
396.498
396.569
407.481
407.508
406.977
407.184
406.698
406.722
406.171
406.385
408.028
408.402
407.548
407.939
408.013
408.363
407.492
407.871
407.575
408.017
407.646
407.974
408.281
407.858
406.716
406.162
405.924
405.383
406.964
406.337
407.163
406.6
407.264
406.685
408.613
408.715
408.161
408.288
408.613
408.751
408.135
408.314
408.591
408.795
408.233
408.488
407.697
408.008
407.178
407.586
407.636
407.649
407.4
407.478
406.742
406.743
406.492
406.532
407.999
408.106
408.216
408.246
407.056
407.226
406.646
406.911
406.131
406.245
405.699
405.895
407.671
407.887
407.28
407.605
408.412
408.655
408.447
408.55
408.609
408.785
408.562
408.63
408.101
408.416
408.258
408.404
407.733
408.122
408.007
408.199
408.813
408.742
408.885
408.764
408.78
408.702
408.879
408.746
408.701
408.636
408.849
408.73
407.723
406.846
408.291
408.652
408.776
406.839
407.682
408.239
408.596
408.694
406.853
407.722
408.293
408.592
408.635
408.43
407.881
408.393
407.806
408.436
407.923
408.42
407.857
408.435
407.978
408.459
407.941
406.829
406.606
407.669
407.397
408.172
407.836
408.469
408.076
408.483
408.011
406.895
406.784
407.747
407.6
408.266
408.022
408.499
408.138
408.452
407.979
407.752
407.746
407.548
407.629
406.862
406.934
406.622
406.8
408.084
407.984
408.253
408.084
407.238
407.384
406.921
407.049
406.289
406.528
405.94
406.158
407.82
407.763
407.534
407.453
408.32
408.024
408.24
407.764
408.454
408.101
408.367
407.864
408.116
407.843
408.065
407.579
407.852
407.557
407.852
407.358
407.209
406.575
406.951
406.209
407.297
406.617
407.015
406.229
407.379
406.625
407.111
406.2
406.138
405.308
406.884
406.035
407.296
406.442
407.482
406.602
407.175
406.1
406.387
405.432
407.14
406.142
407.456
406.415
407.445
406.361
407.054
405.84
408.27
407.108
405.222
402.225
407.878
406.723
404.822
401.827
408.294
407.138
405.258
402.239
407.918
406.775
404.89
401.905
408.311
407.163
405.374
402.449
408.073
406.948
405.138
402.209
407.649
406.567
404.727
401.794
407.32
406.302
404.498
401.621
408.197
407.077
405.335
402.459
407.998
406.873
405.295
402.726
408.262
407.118
405.452
402.719
408.043
406.894
405.341
402.86
408.033
406.952
405.168
402.249
407.906
406.814
405.222
402.643
407.82
406.794
405.035
402.186
407.768
406.721
405.149
402.617
408.401
407.237
405.449
402.588
408.227
407.065
405.443
402.897
408.376
407.214
405.452
402.61
408.187
407.026
405.418
402.896
408.313
407.155
405.458
402.698
408.136
406.974
405.387
402.902
408.192
407.034
405.433
402.838
408.065
406.902
405.356
402.945
408.022
406.861
405.35
402.983
407.812
406.654
405.122
403.259
407.267
406.11
404.554
402.811
407.812
406.652
405.125
403.27
407.264
406.104
404.549
402.806
407.801
406.637
405.108
403.251
407.251
406.084
404.528
402.794
407.784
406.614
405.103
403.252
407.234
406.059
404.508
402.777
407.75
406.576
405.089
403.254
407.2
406.015
404.47
402.746
407.564
406.414
404.941
403.128
407.068
405.896
404.375
402.654
407.673
406.505
405.02
403.194
407.156
405.971
404.435
402.714
407.425
406.306
404.842
403.036
406.925
405.784
404.283
402.58
407.265
406.191
404.752
402.962
406.746
405.654
404.184
402.499
397.889
394.466
391.599
389.3
387.556
397.666
394.29
391.436
389.143
387.402
397.887
394.462
391.597
389.299
387.556
397.668
394.292
391.441
389.149
387.409
397.902
394.463
391.597
389.301
387.558
397.777
394.394
391.542
389.25
387.51
397.631
394.27
391.43
389.145
387.408
397.59
394.251
391.422
389.144
387.409
397.878
394.447
391.588
389.295
387.554
397.685
394.19
391.329
389.043
387.307
397.873
394.407
391.54
389.246
387.505
397.663
394.153
391.288
389
387.264
397.823
394.412
391.562
389.274
387.535
397.614
394.133
391.28
388.998
387.265
397.791
394.396
391.555
389.272
387.535
397.553
394.085
391.243
388.966
387.235
397.879
394.395
391.519
389.22
387.476
397.641
394.106
391.23
388.937
387.199
397.866
394.378
391.503
389.205
387.463
397.633
394.097
391.222
388.929
387.192
397.832
394.335
391.462
389.166
387.426
397.603
394.067
391.195
388.904
387.168
397.73
394.212
391.342
389.05
387.312
397.529
393.997
391.13
388.842
387.108
397.563
394.043
391.179
388.892
387.158
392.111
391.528
392.029
391.433
391.841
391.23
391.54
390.942
391.055
390.54
389.815
389.149
390.373
389.793
389.331
388.596
388.888
388.142
384.768
377.455
371.676
367.387
364.59
384.928
377.539
371.686
367.366
364.521
384.693
377.402
371.639
367.359
364.567
384.831
377.465
371.646
367.319
364.49
384.54
377.297
371.565
367.303
364.52
384.683
377.365
371.576
367.267
364.447
384.302
377.136
371.45
367.215
364.445
384.463
377.218
371.472
367.188
364.379
383.963
376.909
371.287
367.088
364.336
384.181
377.031
371.339
367.084
364.29
383.146
376.345
370.874
366.765
364.062
383.29
376.433
370.908
366.756
364.019
383.562
376.643
371.094
366.937
364.207
383.773
376.769
371.152
366.941
364.171
382.749
376.044
370.645
366.584
363.908
382.826
376.088
370.652
366.557
363.853
382.359
375.738
370.408
366.395
363.745
382.396
375.741
370.392
366.351
363.672
405.668
404.918
405.516
406.301
407.47
406.981
407.475
406.92
406.693
406.12
406.698
406.203
396.494
396.647
397.029
397.635
398.454
399.443
396.443
396.589
396.953
397.521
398.27
399.153
396.119
395.567
396.292
395.764
396.72
396.246
397.406
397.034
398.326
398.046
399.398
399.095
400.511
401.531
402.419
403.164
403.73
404.138
400.099
401.024
401.862
402.574
403.129
403.514
397.169
397.436
397.389
397.026
396.349
397.324
397.593
397.547
397.186
396.508
397.711
397.983
397.941
397.58
396.901
398.325
398.604
398.566
398.207
397.526
399.156
399.444
399.414
399.059
398.376
400.162
400.465
400.447
400.098
399.414
397.118
397.386
397.34
396.978
396.302
397.267
397.536
397.492
397.131
396.454
397.635
397.909
397.867
397.508
396.83
398.212
398.492
398.455
398.098
397.419
398.972
399.262
399.233
398.88
398.199
399.871
400.175
400.158
399.812
399.13
396.792
397.057
397.009
396.648
395.973
396.235
396.499
396.451
396.092
395.42
396.967
397.234
397.188
396.827
396.152
396.435
396.7
396.654
396.295
395.623
397.399
397.67
397.627
397.267
396.59
396.923
397.192
397.149
396.791
396.117
398.094
398.372
398.333
397.975
397.295
397.72
397.998
397.96
397.603
396.927
399.027
399.315
399.285
398.93
398.248
398.746
399.035
399.007
398.655
397.975
400.116
400.42
400.402
400.054
399.37
399.813
400.118
400.103
399.758
399.077
401.252
401.576
401.577
401.24
400.557
402.301
402.655
402.683
402.364
401.686
403.228
403.623
403.687
403.395
402.726
404.026
404.472
404.584
404.326
403.672
404.652
405.149
405.304
405.078
404.439
405.1
405.626
405.803
405.592
404.96
400.837
401.161
401.161
400.825
400.145
401.787
402.136
402.159
401.839
401.162
402.657
403.037
403.089
402.789
402.118
403.403
403.818
403.902
403.623
402.961
403.991
404.437
404.547
404.288
403.633
404.395
404.857
404.981
404.73
404.079
396.57
396.877
397.414
398.175
399.153
400.305
396.519
396.818
397.333
398.052
398.948
399.967
396.199
395.65
396.532
396.014
397.12
396.666
397.971
397.63
399.058
398.815
400.317
400.079
401.523
402.643
403.546
404.163
404.429
404.391
401.022
402.002
402.812
403.383
403.679
403.709
397.246
397.512
397.465
397.102
396.424
397.555
397.824
397.777
397.413
396.733
398.097
398.368
398.322
397.958
397.276
398.866
399.143
399.1
398.736
398.05
399.855
400.139
400.102
399.739
399.048
401.021
401.318
401.289
400.929
400.234
397.195
397.462
397.415
397.053
396.376
397.496
397.765
397.718
397.356
396.677
398.016
398.288
398.244
397.881
397.2
398.744
399.021
398.98
398.618
397.933
399.65
399.936
399.9
399.54
398.851
400.683
400.981
400.954
400.597
399.906
396.871
397.137
397.089
396.727
396.051
396.319
396.582
396.534
396.174
395.502
397.207
397.474
397.426
397.063
396.386
396.686
396.951
396.904
396.543
395.869
397.801
398.071
398.025
397.661
396.981
397.344
397.612
397.567
397.205
396.527
398.66
398.935
398.892
398.529
397.844
398.316
398.591
398.549
398.186
397.504
399.759
400.043
400.005
399.642
398.952
399.514
399.798
399.761
399.4
398.712
401.033
401.328
401.299
400.938
400.243
400.794
401.089
401.06
400.701
400.008
402.259
402.572
402.557
402.205
401.508
403.405
403.742
403.748
403.408
402.713
404.343
404.715
404.752
404.434
403.745
405.008
405.428
405.51
405.224
404.55
405.336
405.811
405.94
405.691
405.037
405.347
405.864
406.03
405.81
405.172
401.757
402.071
402.057
401.708
401.015
402.76
403.095
403.101
402.764
402.073
403.598
403.962
403.994
403.674
402.989
404.203
404.601
404.665
404.368
403.692
404.533
404.965
405.06
404.787
404.122
404.588
405.045
405.162
404.906
404.251
404.646
404.684
402.781
401.528
401.493
401.181
402.318
405.411
405.071
405.151
404.225
404.162
404.401
403.523
403.399
402.9
405.449
405.235
404.281
404.164
404.734
404.55
403.831
403.67
402.587
402.551
403.528
403.506
405.056
404.939
405.391
404.954
404.798
405.24
403.928
402.919
404.17
406.117
406.828
407.102
407.003
406.517
405.795
406.408
406.65
406.492
405.893
403.539
403.872
403.873
403.529
402.831
402.262
402.572
402.554
402.198
401.5
402.231
402.545
402.532
402.181
401.486
401.911
402.218
402.197
401.841
401.145
403.066
403.389
403.382
403.033
402.334
406.714
407.354
407.589
407.451
406.959
406.333
406.943
407.148
406.981
406.449
406.127
406.652
406.823
406.604
405.964
405.36
405.903
406.061
405.851
405.244
404.999
405.41
405.481
405.188
404.51
405.301
405.765
405.883
405.625
404.965
404.327
404.707
404.751
404.439
403.754
404.215
404.61
404.669
404.368
403.69
403.689
404.057
404.092
403.775
403.09
406.733
407.363
407.591
407.447
406.94
406.168
406.661
406.805
406.566
405.914
405.106
405.505
405.565
405.263
404.58
404.973
405.357
405.403
405.09
404.402
405.587
406.012
406.096
405.81
405.134
405.381
405.786
405.852
405.553
404.871
404.626
404.995
405.029
404.707
404.015
404.454
404.811
404.834
404.504
403.809
403.353
403.696
403.708
403.373
402.681
403.308
403.64
403.641
403.298
402.602
404.319
404.684
404.716
404.393
403.703
404.287
404.643
404.664
404.334
403.64
406.439
407.106
407.358
407.236
406.736
405.964
406.52
406.714
406.518
405.892
406.508
407.082
407.293
407.122
406.559
405.866
406.343
406.475
406.227
405.571
405.658
406.09
406.181
405.901
405.228
406.182
406.684
406.838
406.609
405.961
404.724
405.093
405.127
404.805
404.113
403.682
404.019
404.023
403.682
402.984
404.978
405.36
405.404
405.09
404.401
403.802
404.471
404.754
404.672
404.252
403.41
404.826
404.772
405.914
405.94
404.713
404.609
405.872
405.806
403.643
402.406
403.632
402.522
403.515
403.571
402.724
404.866
404.804
405.964
405.998
404.738
404.632
405.91
405.822
403.589
402.289
403.58
402.434
403.467
403.551
402.647
404.858
404.789
405.979
406.023
404.715
404.601
405.91
405.815
403.538
401.965
403.526
402.152
403.408
403.495
402.407
404.625
404.556
405.767
405.815
404.472
404.335
405.692
405.58
403.222
401.556
403.221
401.754
403.114
403.212
402.057
404.198
404.131
405.332
405.381
404.045
403.881
405.256
405.142
402.787
401.225
402.792
401.381
402.7
402.766
401.675
403.426
403.363
404.533
404.581
403.291
403.151
404.459
404.354
402.099
400.665
402.115
400.811
402.037
402.11
401.106
407.66
407.663
406.886
406.893
407.637
407.611
406.859
406.817
408.208
408.614
408.178
408.55
408.163
408.085
408.419
407.722
407.713
406.94
406.957
407.67
407.624
406.898
406.848
408.293
408.621
408.246
408.54
408.197
408.093
408.399
407.75
407.727
406.962
406.991
407.663
407.597
406.902
406.828
408.257
408.453
408.196
408.379
408.116
408.006
408.248
407.537
407.503
406.751
406.788
407.424
407.334
406.681
406.601
407.986
408.057
407.916
407.988
407.807
407.674
407.864
407.078
407.039
406.305
406.344
406.942
406.823
406.231
406.142
407.475
407.477
407.399
407.421
407.276
407.128
407.317
406.237
406.197
405.484
405.524
406.1
405.994
405.41
405.323
406.626
406.713
406.553
406.652
406.449
406.323
406.546
397.918
398.123
398.521
398.855
399.367
399.708
400.517
400.798
400.259
400.587
399.354
399.682
398.686
398.993
398.141
398.362
399.654
400.098
400.236
400.848
401.056
401.62
401.597
402.317
397.209
396.027
397.428
396.321
397.777
396.638
398.138
397.058
399.027
398.364
399.64
398.801
397.37
398.07
400.957
402.026
401.557
402.358
402.24
403.151
402.949
403.643
399.748
400.856
400.389
401.232
398.776
399.848
394.664
393.841
395.222
394.363
395.279
394.244
395.953
394.997
396.152
394.755
397.203
395.897
398.029
396.734
398.984
397.663
400.009
400.21
400.934
401.04
401.868
402.114
402.617
402.862
399.308
399.096
398.235
398.22
401.722
401.732
402.439
402.31
403.295
403.495
403.933
404.036
400.195
399.826
400.987
400.42
397.709
396.142
397.165
395.421
396.563
394.968
396.257
394.453
398.664
397.132
397.915
396.2
399.518
398.002
398.513
396.819
392.716
390.932
392.428
390.668
393.289
391.621
392.748
391.065
394.215
392.924
393.27
391.88
398.715
400.896
396.732
395.242
393.624
400.557
398.253
395.884
394.296
392.562
401.173
399.12
397.135
395.258
393.416
389.287
388.445
388.442
387.698
390.141
389.175
389.018
388.214
391.59
390.502
389.988
389.033
400.003
399.09
397.49
396.273
395.169
393.917
393.329
392.099
390.921
389.708
400.758
400.012
398.46
397.202
396.311
394.892
394.18
392.662
391.508
389.932
399.598
398.201
400.614
399.372
401.859
401.397
402.776
402.485
398.325
396.711
397.336
395.618
401.477
400.234
402.045
400.858
403.518
403.239
404.057
403.834
399.223
397.581
399.794
398.19
395.73
393.808
392.537
390.242
394.927
392.904
391.988
389.729
396.465
394.606
393.057
390.802
397.158
395.28
393.775
391.638
388.12
387.697
386.992
387.984
387.759
387.109
388.674
388.161
387.41
388.402
388.136
387.433
389.768
389.11
388.269
389.019
388.649
387.858
397.968
396.7
395.363
394.962
393.844
392.664
392.703
391.728
390.685
391.093
390.258
389.263
389.515
389.021
388.094
398.962
397.53
396.011
395.512
394.025
392.532
393.176
391.848
390.508
391.298
390.264
389.074
389.559
388.929
387.857
403.543
404.002
403.959
404.553
402.421
402.984
402.894
403.595
403.685
404.573
403.794
404.618
403.984
404.774
404.188
404.926
404.851
404.451
405.113
404.639
404.968
405.3
405.025
405.574
404.162
404.768
405.128
405.66
405.501
406.001
405.502
406.02
405.477
406.277
405.321
406.062
405.625
406.439
405.597
406.338
405.763
406.644
406.001
406.791
406.181
406.863
406.623
407.169
404.588
404.979
405.134
405.568
403.41
403.748
404.041
404.405
405.893
406.409
405.41
405.889
405.663
406.076
406.187
406.523
404.635
404.971
405.21
405.466
406.361
406.86
406.843
407.259
406.525
407.196
406.952
407.333
406.132
406.865
406.497
406.951
406.91
407.491
407.351
407.662
407.332
407.806
407.701
407.949
405.407
404.976
406.179
405.739
405.439
404.982
406.247
405.789
405.482
405.07
406.352
405.941
404.16
402.757
405.038
405.738
406.479
402.443
403.828
404.635
405.324
406.117
403.041
404.41
405.393
406.053
406.574
404.253
403.267
405.01
404.053
404.324
403.383
405.132
404.214
404.492
403.597
405.367
404.508
402.026
401.255
403.496
402.708
404.329
403.523
404.976
404.157
405.727
404.914
402.773
402.3
404.176
403.698
405.131
404.571
405.741
405.064
406.197
405.374
405.033
404.823
405.633
405.577
403.758
403.588
404.471
404.497
406.374
406.124
405.855
405.476
406.099
406.162
406.542
406.649
405.028
405.167
405.522
405.714
406.795
406.65
407.193
407.086
406.816
406.359
406.993
406.313
406.344
405.773
406.624
405.859
407.205
406.847
407.312
406.714
407.536
407.217
407.603
407.079
401.935
400.617
399.381
402.417
400.926
399.682
402.131
400.796
399.529
402.641
401.141
399.843
402.417
401.104
399.815
403.005
401.43
400.043
400.224
398.954
397.596
401.652
400.334
398.941
402.449
401.072
399.652
403.019
401.641
400.259
403.4
401.739
400.226
401.459
400.071
398.523
402.817
401.398
399.836
403.57
402.067
400.456
403.895
402.314
400.688
403.785
402.039
400.374
406.577
405.965
404.442
401.697
406.32
405.667
404.096
401.332
406.694
406.057
404.528
401.757
406.536
405.839
404.251
401.476
406.842
406.169
404.7
402.008
406.909
406.158
404.592
401.841
406.869
406.036
404.36
401.545
407.037
406.109
404.364
401.529
407.19
406.39
404.855
402.125
407.14
406.285
404.875
402.416
406.943
406.222
404.834
402.301
406.866
406.094
404.784
402.468
407.392
406.513
404.857
402.026
407.379
406.452
404.958
402.438
407.598
406.642
404.927
402.108
407.589
406.598
405.058
402.546
406.531
405.984
404.596
402.008
406.174
405.707
404.519
402.256
406.565
406
404.63
402.061
406.19
405.701
404.52
402.28
406.612
406.011
404.684
402.188
406.268
405.729
404.544
402.33
406.627
405.98
404.716
402.364
406.341
405.749
404.577
402.423
406.594
405.898
404.688
402.53
405.624
405.229
404.156
402.529
405.007
404.657
403.562
402.033
405.692
405.263
404.183
402.56
405.078
404.689
403.58
402.045
405.819
405.33
404.223
402.588
405.205
404.75
403.612
402.073
406.003
405.431
404.299
402.655
405.377
404.838
403.665
402.112
406.24
405.564
404.39
402.727
405.578
404.94
403.722
402.151
406.693
405.822
404.516
402.788
406.093
405.239
403.91
402.28
406.47
405.692
404.45
402.752
405.837
405.088
403.815
402.217
406.894
405.944
404.579
402.818
406.331
405.381
403.997
402.348
407.087
406.07
404.664
402.888
406.55
405.521
404.089
402.422
397.578
394.277
391.481
389.221
387.495
397.366
394.104
391.319
389.063
387.34
397.606
394.291
391.49
389.228
387.501
397.412
394.135
391.343
389.084
387.359
397.654
394.312
391.504
389.239
387.51
397.564
394.263
391.461
389.196
387.468
397.482
394.179
391.373
389.108
387.379
397.534
394.216
391.401
389.13
387.399
397.686
394.33
391.515
389.247
387.516
397.515
394.088
391.266
389.001
387.274
397.646
394.27
391.455
389.19
387.461
397.46
394.031
391.213
388.95
387.226
397.691
394.332
391.512
389.24
387.509
397.498
394.063
391.237
388.969
387.243
397.745
394.368
391.538
389.261
387.527
397.512
394.061
391.228
388.956
387.227
397.557
394.202
391.4
389.141
387.416
397.311
393.911
391.111
388.858
387.138
397.562
394.195
391.389
389.129
387.404
397.314
393.907
391.104
388.851
387.131
397.559
394.171
391.36
389.099
387.373
397.313
393.895
391.088
388.833
387.113
397.487
394.066
391.251
388.99
387.265
397.272
393.844
391.036
388.78
387.059
397.339
393.909
391.096
388.837
387.115
384.82
384.321
385.069
384.556
385.503
384.932
386.06
385.387
386.625
385.84
387.537
386.638
387.077
386.193
387.985
387.122
388.445
387.663
379.508
373.751
368.959
365.266
362.766
379.589
373.794
368.95
365.235
362.695
379.622
373.811
368.997
365.294
362.79
379.69
373.838
368.985
365.245
362.71
379.839
373.932
369.075
365.35
362.837
379.9
373.954
369.059
365.3
362.756
380.134
374.105
369.189
365.434
362.908
380.17
374.112
369.163
365.376
362.819
380.481
374.325
369.339
365.545
363.001
380.464
374.299
369.291
365.471
362.9
381.229
374.865
369.735
365.853
363.269
381.148
374.788
369.648
365.752
363.15