/*--------------------------------*- C++ -*----------------------------------*\
  =========                 |
  \\      /  F ield         | OpenFOAM: The Open Source CFD Toolbox
   \\    /   O peration     | Website:  https://openfoam.org
    \\  /    A nd           | Version:  13
     \\/     M anipulation  |
\*---------------------------------------------------------------------------*/
FoamFile
{
    format      ascii;
    class       volScalarField;
    location    "514.831886";
    object      T;
}
// * * * * * * * * * * * * * * * * * * * * * * * * * * * * * * * * * * * * * //

dimensions      [0 0 0 1 0 0 0];

internalField   nonuniform List<scalar> 
5712
(
310.575
310.593
310.625
310.654
310.7
310.73
310.805
310.829
310.784
310.812
310.702
310.73
310.642
310.669
310.597
310.617
310.724
310.761
310.774
310.826
310.851
310.899
310.897
310.959
310.508
310.4
310.529
310.427
310.556
310.452
310.587
310.489
310.664
310.606
310.717
310.644
310.516
310.577
310.836
310.929
310.887
310.956
310.953
311.031
311.013
311.072
310.727
310.823
310.782
310.855
310.639
310.733
310.275
310.201
310.327
310.25
310.328
310.235
310.389
310.303
310.404
310.279
310.498
310.381
310.571
310.456
310.654
310.537
310.752
310.768
310.832
310.84
310.92
310.942
310.984
311.006
310.685
310.663
310.59
310.587
310.9
310.9
310.961
310.949
311.042
311.06
311.097
311.106
310.762
310.726
310.83
310.778
310.54
310.4
310.488
310.33
310.439
310.295
310.408
310.244
310.624
310.487
310.553
310.398
310.699
310.564
310.605
310.453
310.099
309.938
310.073
309.912
310.148
309.997
310.099
309.946
310.23
310.114
310.145
310.018
310.638
310.837
310.457
310.321
310.174
310.809
310.598
310.383
310.237
310.078
310.861
310.674
310.492
310.32
310.152
309.788
309.715
309.707
309.642
309.864
309.779
309.758
309.687
309.995
309.9
309.845
309.761
310.762
310.685
310.532
310.427
310.32
310.211
310.151
310.043
309.928
309.821
310.826
310.764
310.616
310.507
310.419
310.295
310.223
310.089
309.977
309.837
310.715
310.592
310.803
310.695
310.921
310.885
311
310.979
310.594
310.45
310.508
310.355
310.878
310.769
310.927
310.823
311.064
311.044
311.11
311.096
310.673
310.526
310.722
310.579
310.357
310.183
310.064
309.854
310.287
310.105
310.017
309.811
310.421
310.253
310.108
309.903
310.481
310.312
310.172
309.977
309.691
309.658
309.598
309.676
309.662
309.608
309.739
309.699
309.635
309.713
309.696
309.636
309.839
309.786
309.714
309.768
309.742
309.676
310.59
310.481
310.366
310.315
310.22
310.119
310.107
310.026
309.937
309.958
309.89
309.805
309.812
309.776
309.698
310.675
310.554
310.423
310.361
310.234
310.106
310.147
310.035
309.92
309.974
309.89
309.788
309.815
309.768
309.678
311.078
311.117
311.113
311.163
310.975
311.024
311.015
311.075
311.098
311.178
311.108
311.182
311.121
311.193
311.138
311.205
311.194
311.16
311.215
311.176
311.208
311.235
311.203
311.249
311.123
311.174
311.217
311.26
311.247
311.289
311.252
311.295
311.259
311.331
311.246
311.313
311.269
311.343
311.266
311.334
311.279
311.36
311.298
311.371
311.313
311.377
311.349
311.402
311.168
311.203
311.214
311.252
311.061
311.091
311.114
311.146
311.284
311.329
311.244
311.286
311.258
311.295
311.302
311.333
311.164
311.194
311.213
311.236
311.323
311.367
311.363
311.4
311.342
311.405
311.38
311.417
311.31
311.378
311.342
311.385
311.374
311.43
311.413
311.445
311.409
311.456
311.442
311.469
311.255
311.22
311.323
311.286
311.256
311.219
311.328
311.289
311.258
311.224
311.336
311.301
311.135
311.007
311.215
311.278
311.346
310.981
311.107
311.182
311.244
311.315
311.031
311.156
311.245
311.305
311.354
311.159
311.075
311.224
311.143
311.164
311.084
311.234
311.156
311.176
311.101
311.253
311.18
310.947
310.882
311.08
311.014
311.156
311.089
311.215
311.146
311.283
311.213
311.01
310.972
311.137
311.098
311.224
311.178
311.279
311.223
311.322
311.252
311.21
311.195
311.26
311.26
311.094
311.083
311.154
311.162
311.328
311.31
311.285
311.255
311.299
311.309
311.337
311.351
311.202
311.219
311.244
311.266
311.363
311.355
311.397
311.392
311.37
311.333
311.389
311.332
311.33
311.284
311.358
311.294
311.403
311.375
311.416
311.366
311.43
311.406
311.44
311.397
310.962
310.849
310.743
311.003
310.875
310.769
310.977
310.863
310.755
311.021
310.893
310.782
311
310.888
310.778
311.051
310.917
310.798
310.795
310.687
310.57
310.925
310.813
310.693
310.998
310.881
310.759
311.05
310.932
310.814
311.084
310.943
310.813
310.902
310.784
310.652
311.025
310.905
310.772
311.094
310.966
310.829
311.124
310.99
310.851
311.117
310.968
310.826
311.36
311.312
311.184
310.949
311.339
311.287
311.155
310.918
311.369
311.319
311.191
310.954
311.356
311.3
311.167
310.929
311.382
311.328
311.205
310.975
311.387
311.327
311.196
310.961
311.383
311.317
311.176
310.935
311.397
311.322
311.176
310.933
311.411
311.347
311.218
310.985
311.406
311.338
311.22
311.01
311.39
311.333
311.217
311
311.384
311.322
311.213
311.015
311.427
311.357
311.218
310.976
311.426
311.352
311.227
311.012
311.444
311.367
311.224
310.983
311.444
311.364
311.235
311.021
311.356
311.313
311.197
310.976
311.326
311.29
311.191
310.997
311.359
311.314
311.2
310.98
311.327
311.289
311.191
310.999
311.363
311.315
311.204
310.991
311.334
311.292
311.193
311.004
311.364
311.313
311.207
311.006
311.34
311.293
311.195
311.012
311.361
311.306
311.205
311.021
311.28
311.249
311.16
311.022
311.228
311.201
311.11
310.98
311.286
311.253
311.163
311.025
311.234
311.204
311.112
310.982
311.296
311.258
311.166
311.027
311.244
311.209
311.114
310.984
311.311
311.266
311.172
311.033
311.259
311.217
311.119
310.987
311.331
311.278
311.18
311.039
311.275
311.225
311.123
310.99
311.369
311.299
311.19
311.044
311.319
311.25
311.139
311.001
311.35
311.288
311.185
311.041
311.297
311.237
311.131
310.996
311.386
311.309
311.195
311.046
311.339
311.262
311.146
311.007
311.402
311.32
311.202
311.052
311.357
311.273
311.154
311.013
310.592
310.305
310.061
309.862
309.709
310.574
310.29
310.047
309.848
309.696
310.595
310.306
310.061
309.863
309.71
310.578
310.293
310.048
309.85
309.697
310.599
310.308
310.063
309.864
309.711
310.591
310.304
310.059
309.86
309.707
310.584
310.296
310.051
309.852
309.699
310.588
310.299
310.053
309.854
309.701
310.601
310.31
310.064
309.864
309.711
310.586
310.288
310.042
309.842
309.69
310.598
310.304
310.058
309.859
309.706
310.582
310.284
310.037
309.838
309.685
310.601
310.309
310.063
309.863
309.71
310.585
310.286
310.039
309.839
309.686
310.606
310.312
310.065
309.865
309.712
310.586
310.286
310.038
309.838
309.685
310.59
310.298
310.053
309.855
309.702
310.569
310.273
310.028
309.83
309.677
310.591
310.298
310.053
309.854
309.701
310.569
310.273
310.028
309.829
309.677
310.59
310.296
310.05
309.851
309.699
310.569
310.272
310.026
309.828
309.675
310.584
310.287
310.04
309.842
309.689
310.566
310.267
310.021
309.823
309.67
310.571
310.273
310.027
309.828
309.676
309.368
309.322
309.389
309.342
309.427
309.375
309.476
309.414
309.525
309.453
309.602
309.52
309.563
309.482
309.641
309.562
309.681
309.609
308.865
308.316
307.856
307.5
307.257
308.873
308.32
307.855
307.497
307.25
308.874
308.321
307.859
307.502
307.259
308.881
308.324
307.859
307.497
307.251
308.893
308.332
307.866
307.507
307.263
308.9
308.334
307.865
307.502
307.256
308.919
308.347
307.877
307.515
307.27
308.923
308.348
307.874
307.509
307.261
308.949
308.367
307.89
307.525
307.279
308.949
308.365
307.886
307.518
307.269
309.015
308.414
307.926
307.553
307.304
309.008
308.408
307.918
307.544
307.292
308.982
308.39
307.907
307.538
307.29
308.977
308.384
307.9
307.529
307.279
309.047
308.44
307.945
307.569
307.318
309.043
308.435
307.939
307.561
307.308
309.081
308.466
307.966
307.586
307.333
309.081
308.463
307.962
307.58
307.324
311.196
311.123
311.059
311.142
311.033
311.044
311.048
311.063
311.024
311.045
310.926
310.951
310.875
310.903
310.948
310.972
310.977
310.993
310.982
310.995
311.137
311.155
310.931
310.842
310.815
310.806
310.887
310.931
310.83
310.948
310.742
310.611
310.923
310.886
310.785
310.895
310.85
310.842
311.015
311.021
310.964
310.984
311.01
311.031
311.006
310.973
310.86
310.881
310.923
310.944
311.101
311.128
311.079
311.101
311.067
311.06
310.998
310.922
311
311.269
311.337
311.366
311.362
311.324
311.253
311.31
311.334
311.324
311.276
310.997
311.028
311.031
311.004
310.946
310.906
310.934
310.934
310.906
310.848
310.879
310.909
310.91
310.883
310.825
310.87
310.898
310.898
310.869
310.811
310.952
310.982
310.984
310.957
310.9
311.076
311.164
311.21
311.219
311.192
310.984
311.078
311.127
311.136
311.105
311.05
311.116
311.151
311.149
311.104
310.884
310.975
311.019
311.024
310.986
310.749
310.842
310.887
310.892
310.854
311.004
311.051
311.07
311.056
311.004
310.981
311.04
311.07
311.063
311.016
310.876
310.933
310.961
310.953
310.905
310.971
311.012
311.026
311.008
310.955
310.931
310.977
310.995
310.98
310.929
310.916
310.956
310.968
310.949
310.896
311.148
311.222
311.26
311.263
311.231
311.112
311.167
311.193
311.184
311.136
311.041
311.084
311.099
311.082
311.029
311.057
311.096
311.108
311.087
311.033
311.09
311.135
311.151
311.136
311.084
311.106
311.147
311.159
311.14
311.086
311.076
311.111
311.118
311.094
311.038
311.043
311.077
311.084
311.06
311.004
310.928
310.962
310.969
310.945
310.889
310.947
310.979
310.983
310.958
310.901
310.995
311.033
311.043
311.022
310.968
311.014
311.049
311.057
311.034
310.978
311.229
311.299
311.33
311.328
311.293
311.22
311.273
311.296
311.285
311.235
311.186
311.248
311.278
311.274
311.233
311.183
311.229
311.247
311.232
311.18
311.144
311.187
311.201
311.184
311.13
311.149
311.202
311.226
311.216
311.168
311.069
311.105
311.112
311.09
311.034
310.989
311.021
311.025
310.999
310.942
311.073
311.111
311.121
311.1
311.045
311.152
311.112
311.149
311.104
311.249
311.202
311.251
311.209
311.145
311.14
311.102
311.11
311.247
311.245
311.204
311.217
311.05
310.95
311.014
310.918
311.05
310.959
311.007
310.918
311.005
311.043
311.026
311.051
310.973
310.934
311.049
311.003
311.069
311.019
311.147
311.099
311.175
311.129
310.954
310.905
310.983
310.927
310.881
310.822
310.859
310.779
310.831
310.755
310.865
310.771
310.829
310.745
310.881
310.753
310.856
310.743
310.807
310.691
310.739
310.621
311.108
311.083
311.088
311.058
311.236
311.227
311.214
311.206
310.967
310.893
310.986
310.919
311.055
311.029
311.012
310.992
311.181
311.179
311.142
311.146
310.933
310.863
310.887
310.823
310.842
310.7
310.723
310.563
310.854
310.702
310.745
310.576
310.809
310.674
310.693
310.538
310.76
310.626
310.652
310.499
310.852
310.806
310.764
310.691
310.86
310.822
310.751
310.681
310.873
310.853
310.727
310.67
311.114
311.245
310.985
310.847
310.672
311.249
311.125
310.996
310.851
310.642
311.238
311.097
310.935
310.758
310.575
310.731
310.697
310.499
310.431
310.766
310.732
310.513
310.445
310.819
310.791
310.53
310.461
311.247
311.228
311.114
311.092
310.975
310.952
310.807
310.778
310.508
310.434
311.238
311.218
311.082
311.036
310.906
310.848
310.702
310.632
310.427
310.338
311.045
310.966
311.024
310.942
311.222
311.215
311.204
311.201
310.825
310.708
310.851
310.741
311.005
310.911
310.969
310.869
311.181
311.173
311.149
311.137
310.806
310.675
310.765
310.627
310.587
310.437
310.286
310.096
310.627
310.481
310.341
310.163
310.556
310.4
310.239
310.043
310.527
310.361
310.213
310.021
310.684
310.654
310.475
310.471
310.718
310.685
310.484
310.483
310.769
310.721
310.493
310.489
311.19
311.121
311.05
310.985
310.916
310.86
310.749
310.696
310.476
310.476
311.18
311.106
310.974
310.906
310.792
310.742
310.61
310.587
310.422
310.435
311.409
311.412
311.367
311.384
311.337
311.34
311.293
311.311
311.46
311.496
311.42
311.457
311.458
311.492
311.415
311.451
311.422
311.459
311.427
311.455
311.484
311.449
311.345
311.298
311.272
311.227
311.371
311.317
311.387
311.339
311.399
311.35
311.517
311.531
311.479
311.495
311.516
311.533
311.477
311.497
311.514
311.537
311.484
311.512
311.439
311.472
311.396
311.437
311.424
311.427
311.404
311.413
311.343
311.344
311.321
311.326
311.46
311.471
311.478
311.482
311.375
311.392
311.341
311.365
311.291
311.302
311.254
311.272
311.432
311.453
311.399
311.429
311.499
311.526
311.504
311.518
311.515
311.537
311.513
311.524
311.473
311.506
311.489
311.506
311.443
311.482
311.468
311.489
311.533
311.527
311.544
311.534
311.53
311.523
311.544
311.532
311.522
311.517
311.541
311.531
311.432
311.352
311.484
311.519
311.535
311.351
311.428
311.479
311.513
311.528
311.353
311.432
311.486
311.515
311.524
311.5
311.454
311.502
311.452
311.5
311.457
311.504
311.456
311.5
311.461
311.508
311.463
311.351
311.333
311.427
311.405
311.474
311.446
311.503
311.47
311.51
311.47
311.358
311.35
311.436
311.425
311.484
311.465
311.508
311.478
311.509
311.469
311.438
311.44
311.421
311.432
311.356
311.366
311.336
311.356
311.471
311.466
311.485
311.473
311.395
311.412
311.369
311.384
311.308
311.334
311.279
311.303
311.449
311.448
311.425
311.422
311.495
311.473
311.493
311.453
311.506
311.478
311.503
311.461
311.479
311.458
311.479
311.439
311.457
311.434
311.461
311.42
311.397
311.344
311.379
311.316
311.404
311.347
311.384
311.318
311.41
311.347
311.393
311.316
311.294
311.225
311.362
311.291
311.401
311.329
311.42
311.347
311.399
311.308
311.319
311.239
311.388
311.304
311.418
311.331
311.42
311.329
311.39
311.287
311.499
311.405
311.248
310.992
311.466
311.373
311.214
310.958
311.501
311.408
311.251
310.993
311.47
311.377
311.22
310.965
311.503
311.41
311.261
311.012
311.483
311.392
311.241
310.991
311.448
311.36
311.206
310.956
311.421
311.338
311.187
310.941
311.494
311.403
311.258
311.013
311.477
311.386
311.255
311.036
311.499
311.406
311.268
311.035
311.481
311.388
311.259
311.047
311.48
311.393
311.244
310.995
311.47
311.381
311.249
311.029
311.463
311.38
311.232
310.989
311.458
311.374
311.243
311.027
311.51
311.416
311.267
311.023
311.495
311.402
311.267
311.05
311.508
311.414
311.267
311.025
311.492
311.398
311.265
311.05
311.503
311.409
311.268
311.033
311.488
311.394
311.262
311.051
311.493
311.399
311.266
311.045
311.482
311.388
311.26
311.055
311.479
311.385
311.259
311.058
311.46
311.367
311.24
311.082
311.414
311.321
311.192
311.045
311.46
311.367
311.24
311.083
311.414
311.321
311.192
311.045
311.459
311.366
311.239
311.082
311.413
311.319
311.19
311.044
311.458
311.364
311.238
311.082
311.412
311.317
311.188
311.042
311.456
311.361
311.237
311.082
311.41
311.314
311.185
311.04
311.441
311.348
311.225
311.072
311.399
311.304
311.178
311.032
311.45
311.355
311.232
311.077
311.406
311.31
311.183
311.037
311.43
311.339
311.217
311.064
311.388
311.295
311.17
311.026
311.417
311.33
311.21
311.058
311.373
311.284
311.162
311.019
310.618
310.321
310.071
309.869
309.715
310.599
310.305
310.056
309.855
309.701
310.618
310.321
310.07
309.869
309.715
310.599
310.306
310.057
309.855
309.702
310.619
310.321
310.071
309.869
309.715
310.608
310.315
310.066
309.864
309.711
310.596
310.304
310.056
309.855
309.702
310.593
310.302
310.055
309.855
309.702
310.617
310.319
310.07
309.868
309.714
310.601
310.297
310.047
309.846
309.692
310.617
310.316
310.066
309.864
309.71
310.599
310.294
310.043
309.842
309.689
310.612
310.316
310.067
309.866
309.713
310.594
310.292
310.042
309.842
309.688
310.61
310.315
310.067
309.866
309.713
310.589
310.288
310.039
309.839
309.686
310.617
310.315
310.064
309.862
309.708
310.596
310.289
310.038
309.837
309.683
310.616
310.313
310.062
309.86
309.706
310.596
310.289
310.037
309.836
309.682
310.613
310.309
310.059
309.857
309.703
310.593
310.286
310.035
309.834
309.68
310.604
310.299
310.048
309.847
309.693
310.587
310.28
310.029
309.828
309.675
310.59
310.284
310.034
309.833
309.679
310.009
309.956
310.002
309.948
309.985
309.929
309.958
309.903
309.914
309.867
309.803
309.741
309.853
309.799
309.759
309.692
309.72
309.652
309.331
308.648
308.103
307.695
307.427
309.347
308.656
308.104
307.693
307.42
309.325
308.643
308.1
307.692
307.425
309.338
308.65
308.1
307.688
307.417
309.311
308.634
308.093
307.687
307.42
309.324
308.64
308.094
307.684
307.413
309.289
308.619
308.082
307.679
307.413
309.304
308.627
308.084
307.676
307.407
309.259
308.599
308.067
307.667
307.403
309.279
308.61
308.072
307.667
307.398
309.185
308.547
308.029
307.637
307.377
309.198
308.556
308.033
307.636
307.373
309.222
308.574
308.05
307.653
307.391
309.242
308.586
308.055
307.653
307.387
309.149
308.52
308.008
307.62
307.363
309.156
308.524
308.009
307.618
307.358
309.114
308.492
307.987
307.603
307.348
309.118
308.493
307.985
307.599
307.341
311.256
311.187
311.238
311.31
311.408
311.367
311.408
311.362
311.336
311.288
311.337
311.295
310.516
310.529
310.56
310.611
310.679
310.761
310.511
310.523
310.553
310.601
310.663
310.736
310.484
310.436
310.498
310.453
310.534
310.493
310.591
310.559
310.668
310.643
310.757
310.73
310.849
310.933
311.005
311.065
311.11
311.142
310.814
310.89
310.959
311.017
311.061
311.093
310.575
310.598
310.594
310.562
310.504
310.587
310.611
310.607
310.576
310.517
310.62
310.643
310.639
310.608
310.55
310.671
310.695
310.692
310.661
310.602
310.74
310.765
310.762
310.732
310.673
310.823
310.849
310.848
310.818
310.76
310.57
310.593
310.589
310.558
310.499
310.582
310.605
310.602
310.57
310.512
310.613
310.636
310.633
310.602
310.543
310.66
310.685
310.682
310.651
310.592
310.724
310.749
310.746
310.716
310.658
310.798
310.824
310.823
310.794
310.735
310.542
310.565
310.561
310.53
310.471
310.494
310.517
310.513
310.482
310.424
310.557
310.58
310.576
310.545
310.486
310.511
310.534
310.53
310.499
310.44
310.593
310.616
310.613
310.581
310.523
310.552
310.575
310.571
310.54
310.482
310.651
310.675
310.671
310.641
310.582
310.618
310.642
310.639
310.608
310.55
310.728
310.753
310.751
310.72
310.662
310.704
310.729
310.726
310.696
310.638
310.819
310.845
310.844
310.814
310.756
310.792
310.818
310.817
310.788
310.73
310.913
310.941
310.942
310.913
310.855
310.999
311.03
311.033
311.006
310.949
311.075
311.109
311.116
311.092
311.035
311.139
311.178
311.189
311.168
311.114
311.19
311.233
311.248
311.23
311.177
311.226
311.273
311.289
311.273
311.221
310.878
310.906
310.906
310.878
310.82
310.956
310.986
310.989
310.962
310.905
311.027
311.06
311.066
311.041
310.984
311.088
311.124
311.132
311.11
311.054
311.136
311.175
311.186
311.165
311.11
311.169
311.21
311.221
311.202
311.147
310.523
310.548
310.593
310.657
310.739
310.835
310.518
310.543
310.586
310.646
310.721
310.806
310.491
310.443
310.519
310.474
310.568
310.529
310.64
310.61
310.73
310.709
310.835
310.814
310.936
311.028
311.101
311.15
311.169
311.164
310.893
310.974
311.04
311.085
311.108
311.109
310.581
310.604
310.6
310.569
310.51
310.607
310.63
310.626
310.595
310.536
310.652
310.676
310.672
310.641
310.582
310.717
310.741
310.737
310.706
310.647
310.799
310.824
310.821
310.79
310.73
310.896
310.922
310.92
310.889
310.83
310.576
310.6
310.596
310.564
310.506
310.602
310.625
310.621
310.59
310.531
310.645
310.669
310.665
310.634
310.575
310.706
310.73
310.726
310.695
310.636
310.781
310.806
310.803
310.772
310.713
310.867
310.893
310.891
310.861
310.801
310.549
310.572
310.568
310.537
310.478
310.501
310.524
310.52
310.489
310.431
310.577
310.6
310.596
310.565
310.506
310.532
310.555
310.551
310.52
310.462
310.627
310.65
310.647
310.615
310.556
310.588
310.611
310.607
310.576
310.517
310.699
310.723
310.719
310.688
310.629
310.669
310.693
310.689
310.658
310.599
310.791
310.815
310.812
310.781
310.722
310.769
310.794
310.791
310.76
310.701
310.897
310.922
310.92
310.889
310.83
310.876
310.901
310.899
310.868
310.809
310.999
311.026
311.025
310.995
310.936
311.093
311.122
311.123
311.095
311.036
311.169
311.202
311.206
311.179
311.122
311.222
311.259
311.267
311.244
311.188
311.247
311.289
311.302
311.282
311.228
311.247
311.293
311.309
311.292
311.239
310.956
310.983
310.983
310.953
310.894
311.039
311.068
311.069
311.041
310.982
311.107
311.139
311.142
311.116
311.058
311.156
311.191
311.197
311.173
311.116
311.182
311.22
311.229
311.207
311.151
311.185
311.225
311.237
311.216
311.162
311.174
311.184
311.04
310.936
310.931
310.906
311.001
311.236
311.208
311.223
311.139
311.147
311.162
311.095
311.083
311.044
311.242
311.233
311.159
311.151
311.196
311.182
311.125
311.112
311.02
311.019
311.098
311.097
311.21
311.208
311.242
311.213
311.202
311.234
311.133
311.05
311.152
311.304
311.369
311.395
311.389
311.35
311.281
311.336
311.359
311.348
311.298
311.104
311.133
311.134
311.105
311.046
310.999
311.026
311.024
310.994
310.935
310.994
311.022
311.021
310.991
310.932
310.969
310.995
310.994
310.964
310.905
311.065
311.093
311.093
311.063
311.004
311.352
311.41
311.433
311.424
311.384
311.319
311.375
311.395
311.384
311.34
311.308
311.354
311.371
311.355
311.302
311.239
311.289
311.305
311.289
311.239
311.219
311.255
311.262
311.239
311.182
311.24
311.282
311.293
311.273
311.218
311.164
311.198
311.202
311.177
311.119
311.153
311.188
311.194
311.17
311.113
311.111
311.143
311.147
311.121
311.064
311.355
311.413
311.435
311.425
311.384
311.314
311.358
311.372
311.353
311.299
311.229
311.264
311.271
311.246
311.189
311.22
311.253
311.258
311.233
311.175
311.269
311.306
311.315
311.292
311.235
311.254
311.289
311.296
311.271
311.214
311.193
311.225
311.229
311.202
311.144
311.179
311.21
311.212
311.185
311.127
311.086
311.115
311.117
311.089
311.031
311.083
311.112
311.113
311.084
311.025
311.165
311.197
311.201
311.174
311.116
311.164
311.195
311.198
311.17
311.112
311.332
311.392
311.417
311.409
311.368
311.297
311.346
311.365
311.35
311.299
311.34
311.391
311.412
311.399
311.353
311.291
311.333
311.346
311.327
311.272
311.276
311.314
311.323
311.3
311.244
311.316
311.36
311.375
311.357
311.304
311.201
311.233
311.237
311.21
311.152
311.115
311.144
311.145
311.117
311.058
311.221
311.254
311.259
311.233
311.175
311.121
311.177
311.2
311.191
311.154
311.082
311.166
311.161
311.264
311.266
311.156
311.147
311.261
311.256
311.059
310.948
311.058
310.958
311.048
311.053
310.977
311.169
311.163
311.268
311.271
311.158
311.149
311.264
311.257
311.053
310.936
311.053
310.95
311.043
311.051
310.969
311.167
311.161
311.269
311.273
311.156
311.146
311.264
311.257
311.048
310.906
311.047
310.924
311.038
311.046
310.947
311.147
311.141
311.251
311.255
311.135
311.124
311.246
311.237
311.02
310.871
311.021
310.889
311.012
311.022
310.917
311.111
311.105
311.215
311.218
311.099
311.086
311.209
311.201
310.983
310.843
310.985
310.858
310.978
310.985
310.886
311.046
311.041
311.147
311.151
311.036
311.025
311.142
311.135
310.926
310.797
310.928
310.81
310.922
310.93
310.838
311.423
311.424
311.352
311.353
311.422
311.42
311.351
311.348
311.475
311.513
311.472
311.507
311.471
311.464
311.495
311.428
311.428
311.357
311.358
311.425
311.421
311.354
311.351
311.482
311.513
311.478
311.506
311.474
311.465
311.493
311.431
311.429
311.359
311.361
311.424
311.419
311.354
311.349
311.478
311.499
311.473
311.492
311.467
311.457
311.48
311.413
311.41
311.341
311.344
311.404
311.397
311.336
311.33
311.455
311.465
311.45
311.459
311.441
311.43
311.448
311.374
311.371
311.303
311.306
311.364
311.355
311.298
311.292
311.412
311.416
311.406
311.411
311.396
311.384
311.402
311.303
311.301
311.235
311.237
311.293
311.285
311.229
311.224
311.341
311.352
311.335
311.347
311.327
311.316
311.337
310.571
310.589
310.624
310.653
310.7
310.729
310.805
310.829
310.784
310.812
310.701
310.73
310.641
310.668
310.593
310.612
310.723
310.761
310.773
310.826
310.851
310.899
310.897
310.959
310.506
310.398
310.525
310.424
310.555
310.451
310.587
310.489
310.663
310.606
310.717
310.644
310.515
310.577
310.836
310.929
310.887
310.956
310.952
311.031
311.013
311.072
310.727
310.823
310.782
310.855
310.639
310.733
310.274
310.2
310.325
310.248
310.327
310.235
310.389
310.303
310.404
310.278
310.498
310.381
310.571
310.456
310.654
310.537
310.751
310.768
310.832
310.84
310.92
310.942
310.984
311.006
310.684
310.663
310.59
310.587
310.9
310.899
310.961
310.949
311.042
311.06
311.097
311.106
310.762
310.726
310.83
310.778
310.54
310.4
310.487
310.33
310.439
310.295
310.408
310.244
310.624
310.487
310.553
310.398
310.698
310.564
310.605
310.453
310.097
309.935
310.071
309.911
310.148
309.997
310.099
309.946
310.23
310.114
310.144
310.018
310.638
310.837
310.457
310.321
310.174
310.809
310.598
310.382
310.237
310.078
310.861
310.673
310.492
310.32
310.152
309.786
309.712
309.706
309.64
309.864
309.779
309.758
309.687
309.995
309.9
309.845
309.761
310.762
310.685
310.532
310.427
310.32
310.211
310.151
310.043
309.928
309.82
310.826
310.763
310.616
310.507
310.419
310.295
310.223
310.089
309.977
309.837
310.714
310.592
310.803
310.694
310.921
310.885
311
310.979
310.594
310.45
310.507
310.355
310.878
310.769
310.927
310.823
311.064
311.044
311.11
311.095
310.673
310.526
310.722
310.579
310.356
310.183
310.064
309.854
310.287
310.105
310.017
309.811
310.421
310.253
310.108
309.903
310.481
310.312
310.172
309.977
309.689
309.657
309.597
309.675
309.661
309.607
309.739
309.699
309.635
309.713
309.696
309.636
309.839
309.786
309.714
309.768
309.742
309.676
310.59
310.481
310.366
310.315
310.22
310.119
310.107
310.026
309.937
309.958
309.89
309.805
309.812
309.776
309.698
310.675
310.554
310.423
310.361
310.234
310.106
310.147
310.035
309.92
309.974
309.89
309.788
309.815
309.768
309.678
311.078
311.117
311.113
311.163
310.975
311.023
311.015
311.075
311.097
311.177
311.106
311.18
311.121
311.193
311.138
311.205
311.194
311.16
311.215
311.176
311.208
311.235
311.203
311.249
311.123
311.174
311.217
311.26
311.247
311.289
311.252
311.295
311.258
311.33
311.244
311.311
311.269
311.343
311.266
311.334
311.279
311.36
311.298
311.371
311.313
311.377
311.349
311.402
311.168
311.203
311.214
311.252
311.061
311.09
311.114
311.146
311.284
311.329
311.244
311.286
311.258
311.295
311.302
311.333
311.164
311.194
311.213
311.236
311.323
311.367
311.363
311.4
311.342
311.405
311.38
311.417
311.31
311.378
311.342
311.385
311.374
311.43
311.413
311.445
311.409
311.456
311.442
311.469
311.255
311.22
311.322
311.286
311.256
311.219
311.328
311.289
311.258
311.224
311.336
311.301
311.135
311.007
311.215
311.278
311.346
310.981
311.107
311.182
311.244
311.315
311.031
311.156
311.245
311.305
311.354
311.159
311.075
311.224
311.143
311.164
311.084
311.234
311.156
311.176
311.101
311.253
311.18
310.946
310.882
311.08
311.014
311.156
311.089
311.215
311.146
311.282
311.213
311.01
310.971
311.137
311.098
311.224
311.177
311.279
311.223
311.322
311.252
311.209
311.195
311.26
311.26
311.094
311.083
311.154
311.161
311.328
311.31
311.285
311.255
311.299
311.309
311.337
311.351
311.202
311.219
311.244
311.266
311.363
311.355
311.397
311.392
311.37
311.333
311.389
311.332
311.33
311.284
311.358
311.294
311.403
311.375
311.416
311.366
311.43
311.406
311.44
311.397
310.961
310.848
310.742
311.002
310.875
310.768
310.977
310.863
310.755
311.021
310.893
310.782
311
310.888
310.778
311.051
310.917
310.798
310.795
310.687
310.57
310.925
310.813
310.693
310.998
310.881
310.759
311.05
310.932
310.814
311.084
310.942
310.813
310.902
310.784
310.652
311.025
310.905
310.772
311.094
310.966
310.828
311.124
310.99
310.851
311.117
310.968
310.826
311.36
311.311
311.183
310.948
311.338
311.286
311.154
310.917
311.369
311.319
311.191
310.954
311.356
311.3
311.167
310.929
311.382
311.328
311.205
310.975
311.387
311.327
311.196
310.961
311.383
311.317
311.176
310.935
311.397
311.322
311.176
310.933
311.411
311.347
311.218
310.985
311.406
311.338
311.22
311.01
311.39
311.333
311.217
311
311.384
311.322
311.213
311.015
311.427
311.357
311.218
310.976
311.426
311.352
311.227
311.012
311.444
311.367
311.224
310.983
311.444
311.364
311.235
311.021
311.356
311.313
311.197
310.975
311.326
311.29
311.191
310.997
311.359
311.314
311.2
310.98
311.327
311.289
311.191
310.999
311.363
311.315
311.204
310.991
311.334
311.292
311.193
311.004
311.364
311.313
311.207
311.006
311.34
311.293
311.195
311.012
311.361
311.306
311.205
311.021
311.28
311.25
311.16
311.022
311.228
311.201
311.11
310.981
311.286
311.253
311.163
311.025
311.234
311.204
311.112
310.982
311.296
311.258
311.166
311.027
311.244
311.209
311.114
310.984
311.311
311.266
311.172
311.033
311.259
311.217
311.119
310.987
311.331
311.278
311.18
311.039
311.275
311.225
311.123
310.99
311.369
311.299
311.19
311.044
311.319
311.25
311.139
311.001
311.35
311.288
311.185
311.041
311.297
311.237
311.131
310.996
311.386
311.309
311.195
311.046
311.338
311.262
311.146
311.007
311.402
311.319
311.202
311.052
311.357
311.273
311.154
311.013
310.592
310.305
310.061
309.862
309.709
310.574
310.29
310.046
309.848
309.696
310.595
310.306
310.062
309.863
309.71
310.578
310.293
310.049
309.85
309.697
310.599
310.308
310.063
309.864
309.711
310.591
310.304
310.059
309.86
309.707
310.584
310.296
310.051
309.852
309.699
310.588
310.299
310.053
309.854
309.701
310.601
310.31
310.064
309.864
309.711
310.586
310.288
310.042
309.842
309.69
310.598
310.304
310.058
309.859
309.706
310.582
310.284
310.037
309.838
309.686
310.601
310.31
310.063
309.864
309.71
310.585
310.286
310.039
309.839
309.687
310.606
310.312
310.065
309.865
309.712
310.586
310.286
310.038
309.838
309.685
310.59
310.299
310.054
309.855
309.702
310.569
310.273
310.028
309.83
309.678
310.591
310.298
310.053
309.854
309.701
310.569
310.273
310.028
309.829
309.677
310.59
310.296
310.05
309.851
309.699
310.569
310.272
310.026
309.828
309.675
310.584
310.287
310.04
309.842
309.689
310.566
310.267
310.021
309.823
309.67
310.571
310.273
310.027
309.828
309.676
309.367
309.321
309.389
309.341
309.427
309.375
309.476
309.414
309.525
309.453
309.602
309.52
309.563
309.482
309.641
309.562
309.681
309.609
308.864
308.316
307.856
307.5
307.257
308.873
308.32
307.855
307.497
307.25
308.874
308.321
307.859
307.502
307.259
308.881
308.324
307.858
307.497
307.251
308.893
308.332
307.866
307.507
307.263
308.9
308.334
307.865
307.502
307.256
308.919
308.347
307.877
307.515
307.27
308.923
308.348
307.874
307.509
307.261
308.949
308.367
307.89
307.525
307.279
308.949
308.365
307.886
307.518
307.269
309.015
308.414
307.926
307.553
307.303
309.008
308.408
307.918