/*--------------------------------*- C++ -*----------------------------------*\
  =========                 |
  \\      /  F ield         | OpenFOAM: The Open Source CFD Toolbox
   \\    /   O peration     | Website:  https://openfoam.org
    \\  /    A nd           | Version:  13
     \\/     M anipulation  |
\*---------------------------------------------------------------------------*/
FoamFile
{
    format      ascii;
    class       volScalarField;
    location    "434.831886";
    object      T;
}
// * * * * * * * * * * * * * * * * * * * * * * * * * * * * * * * * * * * * * //

dimensions      [0 0 0 1 0 0 0];

internalField   nonuniform List<scalar> 
5712
(
517.467
517.864
518.521
519.135
520.128
520.754
522.387
522.896
521.964
522.552
520.195
520.789
518.915
519.476
517.962
518.385
520.599
521.376
521.667
522.75
523.342
524.344
524.327
525.609
516.043
513.715
516.469
514.296
517.033
514.803
517.7
515.597
519.302
518.075
520.416
518.861
516.147
517.459
523.01
524.992
524.064
525.551
525.512
527.186
526.771
528.052
520.654
522.717
521.816
523.387
518.79
520.79
511.057
509.508
512.175
510.571
512.152
510.2
513.469
511.681
513.753
511.104
515.758
513.305
517.325
514.9
519.11
516.642
521.138
521.478
522.85
523.011
524.768
525.207
526.136
526.578
519.7
519.226
517.691
517.599
524.311
524.294
525.643
525.37
527.382
527.745
528.562
528.751
521.356
520.585
522.834
521.696
516.625
513.669
515.499
512.185
514.46
511.436
513.801
510.362
518.424
515.545
516.904
513.65
520.024
517.183
518.022
514.813
507.332
503.912
506.773
503.377
508.343
505.157
507.319
504.078
510.063
507.608
508.259
505.587
518.717
522.99
514.856
511.957
508.866
522.381
517.872
513.279
510.181
506.841
523.488
519.459
515.578
511.933
508.408
500.763
499.22
499.05
497.672
502.336
500.563
500.109
498.621
505.086
503.093
501.937
500.166
521.372
519.733
516.455
514.241
511.94
509.651
508.351
506.087
503.674
501.418
522.73
521.387
518.23
515.908
514.029
511.401
509.885
507.066
504.728
501.785
520.326
517.732
522.222
519.92
524.75
523.964
526.452
525.998
517.763
514.738
515.915
512.701
523.845
521.534
524.907
522.708
527.838
527.412
528.847
528.537
519.453
516.367
520.52
517.508
512.733
509.104
506.582
502.219
511.243
507.431
505.577
501.291
514.109
510.594
507.542
503.252
515.411
511.861
508.893
504.828
498.748
498.109
496.922
498.415
498.169
497.09
499.756
498.952
497.685
499.174
498.86
497.691
501.836
500.757
499.324
500.336
499.838
498.515
517.725
515.452
513.068
511.888
509.921
507.844
507.482
505.804
503.999
504.32
502.918
501.207
501.271
500.562
499.003
519.513
516.957
514.253
512.838
510.196
507.557
508.301
505.984
503.646
504.665
502.933
500.889
501.362
500.427
498.621
528.24
529.05
528.985
530.037
526.026
527.027
526.877
528.126
528.724
530.445
528.929
530.534
529.207
530.746
529.571
531.018
530.741
530.024
531.173
530.329
531.048
531.645
530.892
531.892
529.16
530.27
531.234
532.18
531.873
532.783
532.003
532.935
532.178
533.718
531.899
533.348
532.391
533.983
532.336
533.809
532.585
534.329
533.004
534.601
533.325
534.736
534.128
535.297
530.134
530.847
531.111
531.914
527.799
528.418
528.938
529.613
532.639
533.599
531.779
532.656
532.071
532.845
533.032
533.674
530.023
530.651
531.08
531.57
533.488
534.425
534.369
535.164
533.924
535.316
534.717
535.56
533.224
534.714
533.889
534.863
534.623
535.856
535.448
536.168
535.395
536.436
536.097
536.7
532.103
531.34
533.541
532.743
532.112
531.306
533.643
532.815
532.129
531.4
533.809
533.063
529.402
526.642
531.149
532.529
534.012
526.079
528.808
530.439
531.791
533.357
527.153
529.839
531.776
533.091
534.178
530.031
528.238
531.416
529.671
530.118
528.407
531.619
529.94
530.361
528.738
532.014
530.441
525.333
523.961
528.222
526.814
529.886
528.435
531.163
529.681
532.639
531.148
526.678
525.855
529.429
528.593
531.309
530.311
532.529
531.308
533.482
531.972
530.982
530.662
532.074
532.05
528.474
528.234
529.778
529.92
533.562
533.16
532.619
531.971
532.926
533.14
533.752
534.058
530.805
531.176
531.729
532.209
534.33
534.137
535.074
534.962
534.489
533.689
534.941
533.707
533.625
532.611
534.262
532.867
535.205
534.597
535.536
534.457
535.82
535.293
536.075
535.136
525.812
523.426
521.206
526.677
523.976
521.743
526.128
523.71
521.436
527.062
524.336
522.005
526.591
524.213
521.9
527.686
524.826
522.335
522.115
519.832
517.401
524.912
522.532
520.032
526.493
524
521.446
527.614
525.119
522.64
528.369
525.353
522.634
524.366
521.879
519.111
527.021
524.468
521.67
528.507
525.792
522.9
529.183
526.321
523.398
529.05
525.88
522.886
534.378
533.349
530.605
525.572
533.937
532.83
529.994
524.919
534.577
533.506
530.752
525.671
534.301
533.12
530.255
525.162
534.84
533.709
531.068
526.134
534.97
533.694
530.871
525.829
534.909
533.486
530.461
525.292
535.225
533.63
530.477
525.266
535.47
534.114
531.354
526.351
535.381
533.936
531.412
526.91
535.019
533.809
531.32
526.68
534.881
533.586
531.246
527.009
535.843
534.342
531.36
526.169
535.821
534.242
531.565
526.953
536.226
534.583
531.491
526.321
536.21
534.511
531.75
527.154
534.286
533.376
530.883
526.147
533.638
532.878
530.757
526.622
534.342
533.403
530.945
526.238
533.666
532.871
530.762
526.665
534.423
533.426
531.048
526.477
533.803
532.923
530.809
526.761
534.447
533.374
531.115
526.811
533.932
532.961
530.872
526.936
534.387
533.231
531.075
527.131
532.648
532.023
530.12
527.176
531.545
531.005
529.068
526.321
532.772
532.092
530.173
527.235
531.673
531.069
529.107
526.349
532.996
532.212
530.247
527.287
531.897
531.179
529.166
526.401
533.323
532.395
530.385
527.409
532.203
531.339
529.263
526.473
533.749
532.636
530.552
527.543
532.564
531.524
529.368
526.546
534.579
533.113
530.789
527.659
533.505
532.073
529.715
526.786
534.169
532.872
530.664
527.591
533.033
531.794
529.539
526.668
534.953
533.34
530.907
527.717
533.947
532.339
529.879
526.914
535.315
533.576
531.067
527.847
534.356
532.599
530.052
527.052
517.96
511.864
506.715
502.575
499.442
517.588
511.564
506.434
502.301
499.173
518.006
511.888
506.731
502.586
499.452
517.658
511.609
506.468
502.33
499.2
518.093
511.926
506.755
502.605
499.469
517.931
511.839
506.679
502.53
499.394
517.789
511.691
506.525
502.373
499.237
517.887
511.761
506.576
502.414
499.273
518.152
511.96
506.776
502.62
499.482
517.855
511.531
506.335
502.183
499.049
518.082
511.853
506.67
502.518
499.382
517.756
511.429
506.24
502.093
498.962
518.163
511.964
506.771
502.609
499.468
517.827
511.488
506.285
502.129
498.995
518.264
512.03
506.819
502.647
499.501
517.856
511.487
506.269
502.105
498.968
517.919
511.726
506.566
502.427
499.297
517.481
511.207
506.05
501.922
498.801
517.932
511.718
506.552
502.411
499.28
517.494
511.207
506.046
501.916
498.795
517.927
511.676
506.501
502.357
499.226
517.493
511.185
506.017
501.885
498.763
517.802
511.491
506.307
502.163
499.035
517.422
511.097
505.924
501.79
498.669
517.541
511.213
506.032
501.892
498.765
492.022
491.07
492.46
491.489
493.262
492.183
494.288
493.021
495.322
493.846
496.976
495.274
496.135
494.467
497.803
496.167
498.662
497.177
481.7
470.587
461.406
454.401
449.741
481.868
470.68
461.398
454.35
449.613
481.898
470.691
461.471
454.449
449.782
482.046
470.757
461.462
454.37
449.644
482.296
470.913
461.616
454.555
449.873
482.43
470.97
461.6
454.472
449.731
482.836
471.232
461.829
454.714
450.008
482.925
471.262
461.794
454.615
449.851
483.472
471.64
462.11
454.925
450.187
483.463
471.607
462.033
454.796
450.006
484.847
472.641
462.852
455.509
450.699
484.711
472.51
462.701
455.329
450.485
484.158
472.128
462.464
455.198
450.423
484.052
472.02
462.329
455.027
450.211
485.537
473.168
463.259
455.838
450.993
485.451
473.076
463.14
455.688
450.807
486.242
473.715
463.684
456.184
451.299
486.255
473.68
463.621
456.079
451.143
530.773
529.187
527.814
529.622
527.322
527.564
527.628
527.957
527.098
527.552
525
525.53
523.919
524.51
525.495
525.99
526.117
526.457
526.245
526.509
529.444
529.848
524.988
523.105
522.557
522.354
524.064
524.978
522.819
525.336
520.97
518.231
524.834
524.047
521.917
524.256
523.309
523.139
526.778
526.91
525.712
526.119
526.677
527.128
526.593
525.896
523.514
523.94
524.848
525.287
528.642
529.24
528.166
528.646
527.904
527.748
526.433
524.799
526.473
532.294
533.767
534.404
534.344
533.569
531.954
533.173
533.717
533.526
532.513
526.374
527.024
527.092
526.542
525.345
524.431
525.019
525.032
524.442
523.233
523.901
524.514
524.554
523.987
522.793
523.674
524.259
524.271
523.683
522.478
525.429
526.061
526.114
525.554
524.356
528.075
529.968
530.976
531.196
530.657
526.105
528.139
529.2
529.422
528.787
527.522
528.938
529.7
529.674
528.755
523.99
525.933
526.906
527.038
526.249
521.159
523.134
524.114
524.251
523.467
526.549
527.558
527.969
527.679
526.617
526.05
527.325
527.968
527.847
526.877
523.844
525.063
525.662
525.514
524.537
525.847
526.733
527.034
526.664
525.564
524.998
525.988
526.386
526.089
525.031
524.693
525.546
525.82
525.433
524.33
529.615
531.23
532.059
532.157
531.499
528.841
530.031
530.601
530.434
529.436
527.341
528.259
528.587
528.235
527.138
527.674
528.51
528.759
528.346
527.216
528.363
529.331
529.702
529.382
528.299
528.719
529.587
529.864
529.469
528.345
528.07
528.815
528.974
528.488
527.319
527.359
528.095
528.248
527.761
526.593
524.951
525.671
525.816
525.33
524.174
525.337
526.008
526.102
525.575
524.395
526.366
527.171
527.393
526.963
525.83
526.758
527.507
527.675
527.201
526.043
531.4
532.911
533.602
533.588
532.865
531.208
532.359
532.862
532.64
531.607
530.441
531.778
532.444
532.383
531.545
530.391
531.392
531.781
531.471
530.388
529.548
530.463
530.781
530.417
529.306
529.64
530.785
531.318
531.126
530.112
527.922
528.684
528.86
528.389
527.227
526.208
526.885
526.982
526.455
525.271
528.006
528.818
529.042
528.609
527.466
529.828
528.967
529.75
528.792
531.92
530.913
531.967
531.079
529.662
529.542
528.728
528.9
531.879
531.816
530.941
531.197
527.625
525.482
526.858
524.804
527.608
525.666
526.7
524.799
526.639
527.457
527.086
527.636
525.951
525.131
527.586
526.598
527.995
526.906
529.719
528.674
530.298
529.278
525.537
524.479
526.148
524.932
523.988
522.715
523.534
521.861
522.952
521.364
523.661
521.669
522.899
521.139
523.995
521.286
523.459
521.059
522.4
519.946
520.938
518.44
528.861
528.306
528.4
527.766
531.616
531.428
531.124
530.956
525.803
524.223
526.217
524.785
527.673
527.115
526.741
526.313
530.414
530.355
529.55
529.627
525.066
523.549
524.056
522.683
523.122
520.128
520.583
517.204
523.403
520.173
521.065
517.498
522.413
519.553
519.929
516.65
521.345
518.529
519.031
515.816
523.395
522.417
521.531
519.983
523.545
522.748
521.247
519.765
523.828
523.407
520.739
519.519
528.991
531.835
526.221
523.271
519.562
531.938
529.232
526.468
523.359
518.931
531.684
528.629
525.138
521.355
517.493
520.824
520.12
515.909
514.482
521.573
520.867
516.198
514.774
522.685
522.109
516.548
515.117
531.896
531.522
529.012
528.564
526.02
525.567
522.437
521.846
516.083
514.556
531.687
531.303
528.331
527.378
524.54
523.327
520.185
518.733
514.375
512.53
527.522
525.853
527.039
525.328
531.338
531.206
530.917
530.88
522.772
520.324
523.358
521.038
526.617
524.643
525.819
523.706
530.417
530.26
529.699
529.46
522.343
519.587
521.468
518.541
517.714
514.562
511.355
507.387
518.587
515.529
512.535
508.819
517.039
513.769
510.349
506.259
516.403
512.912
509.788
505.77
519.872
519.273
515.454
515.398
520.594
519.927
515.638
515.645
521.666
520.688
515.824
515.785
530.721
529.287
527.7
526.362
524.817
523.67
521.246
520.179
515.484
515.534
530.507
528.969
526.072
524.679
522.194
521.172
518.311
517.886
514.349
514.701
535.411
535.462
534.496
534.861
533.837
533.886
532.876
533.256
536.547
537.346
535.691
536.518
536.51
537.252
535.578
536.375
535.71
536.511
535.809
536.415
537.07
536.31
534
532.973
532.406
531.404
534.592
533.422
534.923
533.882
535.225
534.152
537.829
538.146
537.023
537.385
537.807
538.202
536.958
537.424
537.728
538.267
537.078
537.713
536.097
536.837
535.145
536.063
535.731
535.781
535.286
535.458
533.943
533.967
533.468
533.566
536.511
536.746
536.917
537.01
534.642
534.984
533.879
534.395
532.793
533.024
531.986
532.369
535.9
536.334
535.173
535.807
537.391
538.006
537.49
537.824
537.757
538.249
537.707
537.978
536.813
537.563
537.135
537.549
536.132
537.018
536.667
537.167
538.188
538.06
538.449
538.23
538.107
537.968
538.433
538.193
537.932
537.817
538.37
538.155
535.908
534.153
537.067
537.842
538.235
534.147
535.828
536.967
537.736
538.087
534.181
535.923
537.102
537.765
537.99
537.497
536.509
537.554
536.489
537.491
536.569
537.6
536.577
537.458
536.64
537.663
536.726
534.152
533.786
535.831
535.366
536.868
536.276
537.526
536.828
537.708
536.857
534.294
534.163
536.003
535.801
537.081
536.689
537.621
537.005
537.664
536.817
536.03
536.119
535.649
535.908
534.245
534.488
533.797
534.252
536.755
536.659
537.074
536.845
535.06
535.448
534.463
534.816
533.168
533.746
532.512
533.049
536.252
536.241
535.714
535.655
537.302
536.828
537.278
536.44
537.552
536.971
537.513
536.626
536.916
536.481
536.949
536.092
536.413
535.937
536.543
535.665
535.301
534.17
534.939
533.606
535.443
534.23
535.053
533.642
535.566
534.228
535.227
533.592
532.981
531.529
534.471
532.975
535.324
533.81
535.774
534.214
535.348
533.424
533.518
531.845
535.029
533.267
535.71
533.86
535.78
533.848
535.146
532.973
537.485
535.461
532.052
526.549
536.784
534.771
531.33
525.828
537.525
535.513
532.116
526.574
536.849
534.859
531.45
525.967
537.552
535.556
532.329
526.961
537.119
535.163
531.892
526.518
536.351
534.473
531.147
525.761
535.749
533.989
530.727
525.44
537.337
535.394
532.252
526.976
536.98
535.032
532.199
527.493
537.462
535.476
532.476
527.463
537.07
535.079
532.29
527.744
537.032
535.16
531.941
526.588
536.803
534.918
532.06
527.338
536.637
534.866
531.693
526.467
536.543
534.741
531.92
527.288
537.721
535.697
532.472
527.226
537.411
535.4
532.484
527.821
537.674
535.656
532.481
527.267
537.34
535.329
532.44
527.82
537.561
535.55
532.493
527.433
537.248
535.235
532.383
527.833
537.342
535.335
532.456
527.701
537.119
535.104
532.329
527.916
537.038
535.027
532.313
527.983
536.672
534.672
531.929
528.548
535.699
533.706
530.928
527.787
536.672
534.668
531.934
528.566
535.696
533.695
530.918
527.777
536.65
534.639
531.902
528.53
535.671
533.658
530.879
527.753
536.619
534.596
531.89
528.53
535.64
533.611
530.84
527.721
536.555
534.524
531.861
528.533
535.578
533.528
530.77
527.664
536.208
534.22
531.585
528.3
535.328
533.302
530.588
527.49
536.411
534.389
531.733
528.422
535.495
533.443
530.702
527.603
535.947
534.018
531.401
528.128
535.059
533.092
530.416
527.351
535.648
533.803
531.233
527.987
534.724
532.849
530.23
527.197
518.537
512.217
506.936
502.722
499.557
518.138
511.903
506.646
502.443
499.284
518.533
512.209
506.931
502.721
499.557
518.139
511.905
506.654
502.454
499.297
518.558
512.209
506.932
502.723
499.561
518.331
512.085
506.833
502.633
499.475
518.068
511.863
506.632
502.445
499.294
517.992
511.826
506.617
502.441
499.294
518.512
512.179
506.913
502.711
499.553
518.174
511.723
506.455
502.263
499.111
518.507
512.11
506.83
502.625
499.466
518.137
511.658
506.381
502.188
499.035
518.412
512.116
506.866
502.673
499.518
518.045
511.62
506.366
502.184
499.037
518.351
512.084
506.852
502.669
499.518
517.933
511.533
506.297
502.125
498.983
518.524
512.091
506.793
502.579
499.416
518.104
511.579
506.281
502.076
498.921
518.5
512.061
506.765
502.554
499.391
518.089
511.562
506.266
502.063
498.91
518.439
511.983
506.692
502.484
499.325
518.036
511.509
506.218
502.019
498.868
518.257
511.763
506.477
502.277
499.123
517.901
511.382
506.101
501.908
498.761
517.961
511.464
506.187
501.996
498.846
505.632
504.529
505.477
504.35
505.12
503.964
504.548
503.419
503.623
502.653
501.252
499.986
502.318
501.218
500.33
498.934
499.494
498.076
491.524
477.531
466.533
458.436
453.237
491.845
477.704
466.565
458.409
453.119
491.382
477.431
466.462
458.382
453.193
491.659
477.563
466.487
458.32
453.06
491.092
477.232
466.321
458.275
453.102
491.378
477.373
466.354
458.22
452.976
490.641
476.925
466.103
458.107
452.958
490.962
477.095
466.158
458.069
452.847
489.998
476.497
465.794
457.865
452.749
490.425
476.741
465.905
457.871
452.675
488.444
475.426
465.007
457.247
452.221
488.732
475.605
465.086
457.243
452.153
489.234
475.991
465.427
457.576
452.5
489.65
476.244
465.549
457.597
452.446
487.691
474.854
464.572
456.901
451.924
487.851
474.951
464.597
456.863
451.833
486.954
474.276
464.123
456.539
451.61
487.038
474.296
464.104
456.469
451.485
532.075
530.57
531.68
533.257
535.399
534.528
535.406
534.408
533.832
532.802
533.844
532.961
516.172
516.431
517.1
518.169
519.619
521.369
516.085
516.331
516.966
517.969
519.293
520.854
515.502
514.518
515.796
514.854
516.546
515.702
517.759
517.097
519.389
518.888
521.285
520.741
523.253
525.048
526.602
527.896
528.878
529.604
522.526
524.158
525.634
526.886
527.867
528.563
517.376
517.853
517.77
517.126
515.92
517.639
518.12
518.04
517.397
516.191
518.316
518.804
518.73
518.09
516.882
519.401
519.901
519.837
519.2
517.99
520.872
521.392
521.343
520.715
519.502
522.654
523.203
523.179
522.566
521.352
517.29
517.768
517.687
517.044
515.84
517.54
518.022
517.945
517.303
516.099
518.184
518.674
518.603
517.965
516.759
519.202
519.705
519.643
519.011
517.803
520.547
521.07
521.025
520.401
519.192
522.139
522.689
522.668
522.059
520.85
516.701
517.176
517.092
516.449
515.247
515.71
516.181
516.097
515.457
514.262
516.999
517.477
517.396
516.754
515.552
516.05
516.525
516.445
515.806
514.61
517.759
518.244
518.169
517.529
516.325
516.909
517.392
517.317
516.681
515.482
518.988
519.486
519.421
518.785
517.577
518.321
518.819
518.755
518.123
516.92
520.641
521.16
521.111
520.484
519.273
520.14
520.66
520.615
519.993
518.786
522.57
523.119
523.096
522.483
521.271
522.026
522.579
522.561
521.954
520.748
524.582
525.173
525.188
524.599
523.39
526.435
527.086
527.155
526.604
525.406
528.067
528.799
528.944
528.447
527.271
529.468
530.305
530.546
530.12
528.975
530.571
531.515
531.844
531.483
530.37
531.38
532.384
532.758
532.43
531.331
523.85
524.439
524.454
523.867
522.662
525.532
526.172
526.233
525.678
524.483
527.07
527.774
527.893
527.38
526.199
528.392
529.166
529.351
528.883
527.721
529.44
530.277
530.517
530.089
528.943
530.176
531.048
531.315
530.905
529.766
516.326
516.893
517.87
519.251
521.012
523.08
516.238
516.789
517.727
519.029
520.643
522.47
515.663
514.686
516.277
515.358
517.35
516.546
518.891
518.29
520.851
520.427
523.111
522.697
525.253
527.234
528.806
529.839
530.232
530.093
524.351
526.084
527.497
528.468
528.939
528.943
517.53
518.007
517.924
517.278
516.071
518.102
518.582
518.5
517.853
516.643
519.089
519.575
519.496
518.849
517.634
520.484
520.98
520.907
520.261
519.04
522.266
522.778
522.717
522.073
520.846
524.362
524.898
524.854
524.218
522.985
517.443
517.921
517.839
517.195
515.989
517.999
518.48
518.399
517.754
516.546
518.947
519.434
519.358
518.713
517.5
520.263
520.762
520.692
520.049
518.831
521.897
522.412
522.354
521.715
520.491
523.752
524.29
524.251
523.621
522.393
516.862
517.336
517.252
516.607
515.404
515.878
516.349
516.265
515.623
514.427
517.481
517.959
517.875
517.23
516.023
516.556
517.03
516.947
516.304
515.104
518.564
519.048
518.968
518.321
517.11
517.755
518.236
518.156
517.513
516.306
520.121
520.615
520.542
519.896
518.677
519.516
520.009
519.937
519.293
518.078
522.104
522.614
522.551
521.908
520.681
521.677
522.188
522.127
521.487
520.263
524.393
524.927
524.881
524.244
523.01
523.976
524.511
524.467
523.833
522.602
526.574
527.143
527.128
526.509
525.273
528.606
529.224
529.253
528.661
527.431
530.247
530.936
531.029
530.483
529.269
531.379
532.167
532.351
531.872
530.689
531.897
532.798
533.08
532.676
531.532
531.857
532.843
533.199
532.853
531.743
525.669
526.24
526.228
525.614
524.386
527.447
528.062
528.09
527.503
526.28
528.917
529.591
529.672
529.122
527.912
529.956
530.699
530.845
530.342
529.153
530.496
531.31
531.52
531.065
529.899
530.55
531.413
531.669
531.249
530.102
530.276
530.504
527.496
525.274
525.23
524.667
526.689
531.725
531.135
531.469
529.716
529.874
530.214
528.782
528.537
527.689
531.827
531.675
530.106
529.916
530.878
530.573
529.33
529.065
527.163
527.105
528.81
528.78
531.076
531.049
531.817
531.187
530.975
531.673
529.507
527.75
529.928
533.083
534.487
535.073
534.967
534.145
532.585
533.771
534.282
534.062
533.028
528.86
529.47
529.488
528.888
527.652
526.59
527.153
527.132
526.507
525.269
526.554
527.128
527.117
526.502
525.268
525.974
526.532
526.506
525.88
524.644
528.032
528.623
528.624
528.013
526.775
534.206
535.481
536
535.828
534.993
533.537
534.754
535.216
534.988
534.078
533.286
534.302
534.678
534.342
533.233
531.854
532.933
533.297
532.984
531.935
531.402
532.176
532.345
531.854
530.664
531.874
532.763
533.031
532.614
531.463
530.24
530.949
531.062
530.531
529.325
530.024
530.764
530.907
530.4
529.208
529.119
529.803
529.895
529.352
528.145
534.263
535.511
536.01
535.823
534.959
533.4
534.344
534.662
534.283
533.147
531.607
532.355
532.5
531.991
530.79
531.385
532.1
532.214
531.682
530.47
532.437
533.238
533.43
532.955
531.769
532.086
532.844
532.998
532.494
531.295
530.767
531.451
531.537
530.984
529.764
530.481
531.141
531.205
530.637
529.41
528.544
529.176
529.218
528.639
527.415
528.467
529.076
529.096
528.498
527.266
530.241
530.92
531.003
530.45
529.233
530.191
530.848
530.911
530.342
529.117
533.706
535.023
535.565
535.419
534.566
532.957
534.025
534.442
534.145
533.06
533.907
535.029
535.486
535.242
534.271
532.864
533.771
534.058
533.657
532.512
532.547
533.361
533.565
533.1
531.92
533.415
534.375
534.712
534.35
533.223
530.947
531.632
531.719
531.167
529.946
529.123
529.741
529.768
529.174
527.941
531.393
532.104
532.214
531.678
530.465
529.403
530.575
531.045
530.853
530.059
528.518
530.116
530.011
532.253
532.303
529.903
529.713
532.178
532.068
527.82
525.439
527.798
525.656
527.572
527.686
526.044
530.183
530.068
532.346
532.407
529.95
529.761
532.253
532.106
527.7
525.191
527.687
525.472
527.477
527.651
525.889
530.161
530.037
532.375
532.451
529.911
529.716
532.262
532.11
527.595
524.561
527.58
524.93
527.371
527.558
525.437
529.741
529.621
532.003
532.083
529.486
529.259
531.887
531.713
527.012
523.81
527.026
524.206
526.849
527.069
524.814
528.986
528.873
531.237
531.316
528.742
528.476
531.125
530.956
526.246
523.254
526.275
523.571
526.135
526.302
524.164
527.627
527.525
529.829
529.903
527.423
527.203
529.723
529.575
525.046
522.291
525.1
522.59
524.988
525.165
523.188
535.743
535.748
534.182
534.195
535.701
535.66
534.137
534.072
536.873
537.734
536.811
537.595
536.783
536.629
537.323
535.855
535.842
534.284
534.312
535.767
535.692
534.214
534.138
537.035
537.745
536.943
537.575
536.854
536.65
537.29
535.91
535.873
534.328
534.375
535.763
535.657
534.23
534.118
536.966
537.438
536.853
537.286
536.71
536.5
537.023
535.533
535.48
533.961
534.018
535.349
535.205
533.85
533.736
536.485
536.73
536.356
536.59
536.165
535.917
536.341
534.719
534.659
533.173
533.233
534.498
534.306
533.062
532.936
535.573
535.687
535.435
535.576
535.222
534.951
535.368
533.226
533.165
531.721
531.781
533.005
532.839
531.611
531.494
534.06
534.326
533.929
534.206
533.752
533.521
533.995
517.396
517.772
518.505
519.121
520.116
520.743
522.379
522.888
521.955
522.544
520.182
520.777
518.899
519.46
517.874
518.277
520.591
521.37
521.659
522.745
523.336
524.34
524.321
525.605
515.989
513.676
516.395
514.238
517.02
514.793
517.69
515.59
519.296
518.067
520.411
518.856
516.14
517.453
523.005
524.989
524.06
525.549
525.507
527.183
526.768
528.05
520.649
522.714
521.812
523.384
518.785
520.787
511.022
509.474
512.122
510.518
512.146
510.195
513.464
511.677
513.748
511.1
515.754
513.301
517.321
514.897
519.108
516.64
521.134
521.475
522.846
523.008
524.765
525.204
526.132
526.576
519.696
519.223
517.687
517.596
524.308
524.291
525.64
525.368
527.379
527.743
528.56
528.75
521.352
520.583
522.832
521.694
516.622
513.666
515.496
512.182
514.456
511.433
513.798
510.359
518.421
515.542
516.902
513.648
520.021
517.181
518.02
514.811
507.29
503.866
506.744
503.347
508.34
505.155
507.315
504.074
510.059
507.605
508.255
505.584
518.714
522.988
514.853
511.954
508.863
522.378
517.869
513.276
510.179
506.838
523.486
519.457
515.575
511.93
508.405
500.715
499.172
499.022
497.646
502.336
500.565
500.108
498.621
505.085
503.093
501.935
500.165
521.369
519.731
516.453
514.239
511.938
509.649
508.349
506.086
503.672
501.416
522.728
521.385
518.228
515.906
514.027
511.399
509.883
507.063
504.726
501.783
520.323
517.73
522.22
519.918
524.747
523.962
526.45
525.996
517.761
514.735
515.913
512.698
523.843
521.532
524.906
522.706
527.836
527.41
528.846
528.535
519.45
516.365
520.518
517.506
512.731
509.102
506.579
502.217
511.241
507.429
505.575
501.289
514.107
510.592
507.54
503.25
515.41
511.859
508.891
504.826
498.706
498.071
496.887
498.388
498.145
497.068
499.756
498.952
497.685
499.173
498.857
497.688
501.836
500.756
499.322
500.335
499.836
498.513
517.724
515.45
513.066
511.886
509.919
507.842
507.481
505.802
503.997
504.319
502.917
501.205
501.27
500.56
499.001
519.511
516.955
514.251
512.836
510.194
507.556
508.299
505.982
503.645
504.663
502.932
500.888
501.361
500.426
498.619
528.238
529.048
528.983
530.035
526.022
527.024
526.874
528.123
528.697
530.417
528.889
530.493
529.206
530.744
529.572
531.018
530.74
530.022
531.171
530.327
531.047
531.644
530.89
531.89
529.157
530.268
531.232
532.179
531.872
532.782
532.003
532.933
532.155
533.702
531.863
533.319
532.389
533.982
532.335
533.809
532.584
534.328
533.003
534.601
533.324
534.735
534.127
535.297
530.132
530.845
531.109
531.912
527.797
528.416
528.936
529.611
532.638
533.597
531.778
532.655
532.069
532.843
533.031
533.672
530.021
530.649
531.078
531.569
533.486
534.424
534.368
535.163
533.923
535.315
534.716
535.559
533.223
534.713
533.888
534.862
534.621
535.855
535.447
536.167
535.394
536.435
536.096
536.699
532.09
531.332
533.533
532.74
532.111
531.305
533.642
532.814
532.128
531.399
533.807
533.062
529.4
526.64
531.148
532.528
534.011
526.077
528.807
530.437
531.79
533.356
527.151
529.837
531.775
533.09
534.177
530.025
528.23
531.415
529.668
530.118
528.407
531.618
529.939
530.36
528.738
532.013
530.44
525.331
523.959
528.22
526.812
529.885
528.434
531.162
529.68
532.638
531.147
526.676
525.853
529.427
528.591
531.307
530.309
532.527
531.307
533.481
531.971
530.98
530.661
532.072
532.049
528.472
528.232
529.776
529.918
533.56
533.158
532.617
531.97
532.924
533.138
533.751
534.057
530.803
531.174
531.727
532.208
534.329
534.136
535.072
534.96
534.487
533.687
534.94
533.706
533.624
532.61
534.261
532.866
535.204
534.596
535.535
534.456
535.819
535.292
536.074
535.135
525.802
523.414
521.193
526.675
523.97
521.736
526.128
523.71
521.436
527.06
524.335
522.004
526.591
524.213
521.899
527.685
524.825
522.334
522.113
519.83
517.399
524.911
522.531
520.03
526.492
523.999
521.445
527.614
525.119
522.639
528.368
525.353
522.633
524.364
521.877
519.11
527.019
524.467
521.668
528.505
525.791
522.899
529.182
526.32
523.396
529.049
525.879
522.885
534.367
533.34
530.595
525.559
533.914
532.811
529.975
524.9
534.576
533.506
530.752
525.671
534.301
533.12
530.256
525.164
534.839
533.708
531.068
526.134
534.969
533.694
530.872
525.83
534.909
533.486
530.461
525.293
535.225
533.63
530.477
525.267
535.47
534.114
531.354
526.351
535.381
533.935
531.412
526.91
535.018
533.809
531.32
526.68
534.88
533.585
531.246
527.009
535.842
534.341
531.36
526.17
535.821
534.241
531.565
526.953
536.226
534.583
531.491
526.322
536.21
534.511
531.75
527.155
534.282
533.373
530.879
526.139
533.638
532.88
530.757
526.619
534.341
533.402
530.944
526.239
533.665
532.87
530.761
526.665
534.422
533.426
531.047
526.477
533.802
532.922
530.809
526.761
534.446
533.374
531.115
526.811
533.931
532.96
530.872
526.936
534.386
533.23
531.075
527.132
532.652
532.028
530.124
527.176
531.549
531.011
529.074
526.326
532.771
532.091
530.173
527.234
531.672
531.068
529.106
526.348
532.995
532.211
530.247
527.286
531.897
531.178
529.165
526.4
533.323
532.394
530.385
527.409
532.203
531.338
529.262
526.473
533.749
532.636
530.552
527.543
532.563
531.524
529.367
526.546
534.579
533.112
530.789
527.659
533.504
532.073
529.715
526.785
534.168
532.871
530.664
527.591
533.032
531.794
529.538
526.668
534.953
533.34
530.907
527.717
533.946
532.338
529.879
526.914
535.314
533.575
531.067
527.847
534.356
532.599
530.052
527.052
517.956
511.862
506.715
502.574
499.442
517.577
511.555
506.426
502.294
499.166
518.006
511.888
506.731
502.587
499.453
517.66
511.611
506.471
502.332
499.202
518.093
511.927
506.756
502.606
499.47
517.932
511.841
506.68
502.531
499.396
517.79
511.692
506.526
502.374
499.239
517.887
511.762
506.577
502.415
499.274
518.152
511.961
506.777
502.621
499.483
517.855
511.532
506.336
502.184
499.05
518.083
511.853
506.671
502.519
499.383
517.756
511.43
506.24
502.094
498.963
518.164
511.964
506.772
502.61
499.469
517.828
511.489
506.285
502.129
498.995
518.264
512.031
506.82
502.648
499.501
517.857
511.488
506.269
502.106
498.969
517.921
511.73
506.57
502.431
499.301
517.486
511.213
506.056
501.928
498.808
517.931
511.718
506.552
502.411
499.28
517.493
511.207
506.045
501.915
498.794
517.927
511.676
506.501
502.357
499.226
517.493
511.185
506.017
501.885
498.763
517.802
511.491
506.308
502.164
499.036
517.422
511.097
505.924
501.79
498.669
517.541
511.213
506.032
501.892
498.766
491.999
491.052
492.459
491.487
493.261
492.182
494.287
493.019
495.321
493.845
496.974
495.272
496.134
494.465
497.801
496.165
498.661
497.175
481.688
470.58
461.401
454.397
449.737
481.861
470.677
461.397
454.349
449.613
481.897
470.69
461.471
454.448
449.782
482.044
470.755
461.461
454.369
449.643
482.295
470.912
461.615
454.555
449.873
482.429
470.969
461.6
454.471
449.73
482.835
471.231
461.828
454.713
450.007
482.924
471.261
461.793
454.615
449.851
483.471
471.639
462.109
454.924
450.186
483.461
471.606
462.032
454.796
450.006
484.845
472.64
462.85
455.507
450.698
484.71
472.509
462.699
455.327
450.484
484.156