/*--------------------------------*- C++ -*----------------------------------*\
  =========                 |
  \\      /  F ield         | OpenFOAM: The Open Source CFD Toolbox
   \\    /   O peration     | Website:  https://openfoam.org
    \\  /    A nd           | Version:  13
     \\/     M anipulation  |
\*---------------------------------------------------------------------------*/
FoamFile
{
    format      ascii;
    class       volScalarField;
    location    "199.831886";
    object      T;
}
// * * * * * * * * * * * * * * * * * * * * * * * * * * * * * * * * * * * * * //

dimensions      [0 0 0 1 0 0 0];

internalField   nonuniform List<scalar> 
5712
(
1121.68
1121.56
1121.35
1121.16
1120.86
1120.67
1120.17
1120.01
1120.3
1120.12
1120.84
1120.66
1121.24
1121.06
1121.53
1121.4
1120.71
1120.46
1120.38
1120.04
1119.87
1119.55
1119.57
1119.17
1122.12
1122.83
1121.99
1122.66
1121.81
1122.5
1121.6
1122.25
1121.11
1121.48
1120.76
1121.24
1122.08
1121.67
1119.97
1119.37
1119.64
1119.2
1119.21
1118.7
1118.82
1118.43
1120.69
1120.07
1120.33
1119.86
1121.27
1120.66
1123.66
1124.14
1123.31
1123.82
1123.31
1123.92
1122.91
1123.47
1122.81
1123.64
1122.2
1122.96
1121.72
1122.48
1121.18
1121.95
1120.53
1120.42
1120.01
1119.95
1119.41
1119.28
1119
1118.86
1120.98
1121.12
1121.59
1121.62
1119.56
1119.57
1119.16
1119.25
1118.63
1118.51
1118.27
1118.21
1120.47
1120.71
1120.03
1120.38
1121.93
1122.85
1122.28
1123.32
1122.59
1123.54
1122.8
1123.88
1121.38
1122.28
1121.85
1122.87
1120.89
1121.78
1121.52
1122.52
1124.81
1125.88
1124.99
1126.05
1124.5
1125.49
1124.82
1125.83
1123.96
1124.72
1124.52
1125.35
1121.27
1119.95
1122.46
1123.36
1124.33
1120.14
1121.53
1122.95
1123.91
1124.96
1119.8
1121.04
1122.24
1123.37
1124.48
1126.86
1127.34
1127.4
1127.83
1126.37
1126.92
1127.07
1127.53
1125.5
1126.12
1126.49
1127.04
1120.44
1120.94
1121.96
1122.64
1123.36
1124.07
1124.48
1125.18
1125.95
1126.66
1120.02
1120.43
1121.41
1122.12
1122.71
1123.52
1124.01
1124.88
1125.64
1126.56
1120.77
1121.57
1120.19
1120.9
1119.41
1119.64
1118.89
1119.02
1121.58
1122.52
1122.14
1123.14
1119.7
1120.42
1119.39
1120.07
1118.48
1118.6
1118.18
1118.27
1121.06
1122.02
1120.74
1121.68
1123.15
1124.29
1125.09
1126.47
1123.6
1124.8
1125.39
1126.75
1122.73
1123.83
1124.8
1126.16
1122.33
1123.45
1124.38
1125.67
1127.49
1127.69
1128.08
1127.59
1127.67
1128.02
1127.17
1127.42
1127.84
1127.35
1127.45
1127.83
1126.51
1126.85
1127.32
1126.98
1127.14
1127.57
1121.56
1122.26
1123.01
1123.37
1123.98
1124.64
1124.74
1125.27
1125.85
1125.73
1126.17
1126.72
1126.69
1126.91
1127.42
1121
1121.79
1122.63
1123.07
1123.89
1124.73
1124.48
1125.21
1125.96
1125.63
1126.17
1126.83
1126.68
1126.97
1127.55
1118.37
1118.12
1118.15
1117.82
1119.05
1118.73
1118.79
1118.4
1118.23
1117.71
1118.17
1117.68
1118.08
1117.61
1117.97
1117.53
1117.61
1117.83
1117.48
1117.73
1117.52
1117.34
1117.57
1117.27
1118.09
1117.76
1117.47
1117.19
1117.27
1117
1117.24
1116.96
1117.18
1116.71
1117.26
1116.82
1117.11
1116.63
1117.13
1116.68
1117.05
1116.52
1116.93
1116.44
1116.84
1116.41
1116.6
1116.25
1117.78
1117.56
1117.49
1117.24
1118.49
1118.3
1118.15
1117.94
1117.03
1116.73
1117.28
1117.01
1117.2
1116.96
1116.92
1116.72
1117.82
1117.63
1117.51
1117.35
1116.78
1116.49
1116.52
1116.27
1116.64
1116.23
1116.4
1116.15
1116.85
1116.4
1116.64
1116.35
1116.44
1116.07
1116.18
1115.97
1116.21
1115.9
1115.99
1115.82
1117.19
1117.42
1116.76
1116.99
1117.19
1117.43
1116.72
1116.97
1117.18
1117.39
1116.67
1116.89
1117.99
1118.83
1117.47
1117.05
1116.61
1119
1118.17
1117.68
1117.27
1116.8
1118.68
1117.86
1117.27
1116.88
1116.56
1117.81
1118.35
1117.39
1117.92
1117.78
1118.3
1117.33
1117.83
1117.7
1118.19
1117.21
1117.68
1119.22
1119.64
1118.34
1118.77
1117.84
1118.28
1117.46
1117.9
1117.01
1117.46
1118.81
1119.06
1117.97
1118.22
1117.41
1117.7
1117.04
1117.4
1116.76
1117.21
1117.51
1117.59
1117.18
1117.17
1118.27
1118.33
1117.88
1117.82
1116.73
1116.84
1117.01
1117.2
1116.93
1116.85
1116.69
1116.59
1117.57
1117.45
1117.3
1117.15
1116.51
1116.55
1116.29
1116.32
1116.46
1116.69
1116.33
1116.69
1116.71
1117.01
1116.53
1116.94
1116.25
1116.42
1116.15
1116.47
1116.07
1116.22
1116
1116.28
1119.09
1119.82
1120.51
1118.82
1119.65
1120.34
1118.99
1119.73
1120.43
1118.7
1119.54
1120.26
1118.84
1119.57
1120.29
1118.51
1119.38
1120.15
1120.2
1120.9
1121.66
1119.34
1120.07
1120.85
1118.86
1119.63
1120.42
1118.52
1119.28
1120.05
1118.3
1119.21
1120.05
1119.51
1120.27
1121.13
1118.69
1119.47
1120.34
1118.24
1119.07
1119.96
1118.04
1118.91
1119.81
1118.09
1119.05
1119.97
1116.51
1116.82
1117.65
1119.18
1116.65
1116.98
1117.84
1119.38
1116.45
1116.78
1117.61
1119.15
1116.54
1116.9
1117.76
1119.31
1116.37
1116.72
1117.51
1119.01
1116.34
1116.72
1117.58
1119.11
1116.36
1116.79
1117.71
1119.27
1116.27
1116.76
1117.71
1119.28
1116.19
1116.6
1117.43
1118.95
1116.21
1116.65
1117.42
1118.78
1116.32
1116.69
1117.44
1118.85
1116.36
1116.76
1117.46
1118.75
1116.08
1116.53
1117.43
1119
1116.09
1116.57
1117.37
1118.77
1115.97
1116.47
1117.4
1118.96
1115.97
1116.49
1117.32
1118.71
1116.53
1116.81
1117.57
1119
1116.73
1116.96
1117.61
1118.86
1116.52
1116.8
1117.55
1118.98
1116.72
1116.97
1117.6
1118.85
1116.49
1116.8
1117.52
1118.91
1116.68
1116.95
1117.59
1118.82
1116.49
1116.82
1117.5
1118.81
1116.64
1116.94
1117.57
1118.77
1116.51
1116.86
1117.52
1118.71
1117.03
1117.22
1117.8
1118.7
1117.36
1117.53
1118.13
1118.97
1116.99
1117.2
1117.79
1118.68
1117.32
1117.52
1118.11
1118.96
1116.92
1117.17
1117.76
1118.67
1117.26
1117.48
1118.1
1118.94
1116.82
1117.11
1117.72
1118.63
1117.16
1117.44
1118.07
1118.92
1116.7
1117.04
1117.68
1118.59
1117.06
1117.38
1118.04
1118.9
1116.45
1116.91
1117.61
1118.56
1116.78
1117.22
1117.94
1118.83
1116.57
1116.97
1117.64
1118.58
1116.92
1117.3
1117.99
1118.87
1116.35
1116.84
1117.58
1118.55
1116.65
1117.15
1117.89
1118.8
1116.24
1116.77
1117.53
1118.51
1116.53
1117.07
1117.84
1118.76
1121.5
1123.38
1124.98
1126.28
1127.28
1121.62
1123.48
1125.07
1126.37
1127.37
1121.49
1123.37
1124.97
1126.27
1127.28
1121.6
1123.46
1125.06
1126.36
1127.36
1121.47
1123.36
1124.97
1126.27
1127.27
1121.52
1123.39
1124.99
1126.29
1127.3
1121.56
1123.44
1125.04
1126.35
1127.35
1121.54
1123.42
1125.03
1126.33
1127.34
1121.45
1123.35
1124.96
1126.26
1127.27
1121.54
1123.49
1125.1
1126.41
1127.41
1121.47
1123.39
1124.99
1126.3
1127.3
1121.57
1123.52
1125.13
1126.44
1127.44
1121.45
1123.35
1124.96
1126.27
1127.27
1121.56
1123.51
1125.12
1126.43
1127.43
1121.42
1123.33
1124.95
1126.26
1127.26
1121.55
1123.51
1125.13
1126.44
1127.44
1121.52
1123.42
1125.03
1126.33
1127.33
1121.66
1123.59
1125.19
1126.49
1127.49
1121.52
1123.43
1125.03
1126.33
1127.33
1121.65
1123.59
1125.2
1126.49
1127.5
1121.52
1123.44
1125.05
1126.35
1127.35
1121.66
1123.6
1125.21
1126.51
1127.51
1121.56
1123.5
1125.11
1126.41
1127.42
1121.68
1123.63
1125.24
1126.54
1127.54
1121.64
1123.59
1125.2
1126.5
1127.5
1129.67
1129.97
1129.53
1129.84
1129.28
1129.63
1128.96
1129.37
1128.65
1129.12
1128.15
1128.69
1128.4
1128.93
1127.9
1128.42
1127.64
1128.11
1133.03
1136.7
1139.79
1142.19
1143.84
1132.97
1136.67
1139.79
1142.21
1143.89
1132.96
1136.67
1139.77
1142.18
1143.82
1132.92
1136.65
1139.77
1142.21
1143.88
1132.84
1136.6
1139.72
1142.14
1143.79
1132.8
1136.58
1139.73
1142.18
1143.85
1132.67
1136.5
1139.66
1142.09
1143.75
1132.64
1136.49
1139.67
1142.13
1143.81
1132.48
1136.37
1139.57
1142.03
1143.69
1132.48
1136.38
1139.6
1142.07
1143.76
1132.06
1136.06
1139.34
1141.84
1143.53
1132.1
1136.11
1139.39
1141.91
1143.61
1132.27
1136.22
1139.46
1141.94
1143.62
1132.3
1136.26
1139.5
1142
1143.7
1131.84
1135.9
1139.21
1141.74
1143.44
1131.87
1135.93
1139.25
1141.79
1143.51
1131.63
1135.73
1139.07
1141.63
1143.34
1131.63
1135.74
1139.1
1141.67
1143.4
1117.61
1118.09
1118.51
1117.96
1118.66
1118.59
1118.57
1118.47
1118.73
1118.59
1119.37
1119.21
1119.7
1119.52
1119.22
1119.07
1119.03
1118.93
1118.99
1118.91
1117.98
1117.85
1119.27
1119.83
1120.02
1120.07
1119.55
1119.32
1119.98
1119.2
1120.54
1121.39
1119.34
1119.59
1120.25
1119.52
1119.81
1119.86
1118.77
1118.71
1119.07
1118.94
1118.78
1118.63
1118.79
1119
1119.74
1119.6
1119.33
1119.19
1118.21
1118.02
1118.34
1118.19
1118.4
1118.46
1118.84
1119.33
1118.83
1117.11
1116.67
1116.48
1116.5
1116.74
1117.21
1116.84
1116.68
1116.74
1117.05
1118.84
1118.64
1118.62
1118.79
1119.16
1119.42
1119.24
1119.23
1119.42
1119.8
1119.6
1119.41
1119.4
1119.57
1119.95
1119.66
1119.47
1119.47
1119.66
1120.03
1119.13
1118.93
1118.91
1119.09
1119.46
1118.37
1117.79
1117.49
1117.43
1117.6
1118.97
1118.34
1118.02
1117.96
1118.16
1118.52
1118.09
1117.86
1117.88
1118.16
1119.61
1119.01
1118.72
1118.68
1118.93
1120.49
1119.88
1119.58
1119.54
1119.79
1118.81
1118.5
1118.38
1118.47
1118.8
1118.97
1118.58
1118.39
1118.43
1118.73
1119.65
1119.28
1119.09
1119.14
1119.45
1119.02
1118.75
1118.66
1118.78
1119.12
1119.29
1118.98
1118.86
1118.96
1119.29
1119.38
1119.12
1119.03
1119.16
1119.5
1117.9
1117.41
1117.16
1117.14
1117.34
1118.12
1117.76
1117.59
1117.64
1117.95
1118.57
1118.28
1118.19
1118.3
1118.64
1118.46
1118.2
1118.13
1118.26
1118.61
1118.26
1117.96
1117.85
1117.95
1118.29
1118.15
1117.88
1117.8
1117.92
1118.27
1118.33
1118.11
1118.06
1118.21
1118.57
1118.55
1118.32
1118.28
1118.43
1118.79
1119.29
1119.07
1119.02
1119.18
1119.54
1119.16
1118.95
1118.93
1119.09
1119.46
1118.86
1118.61
1118.55
1118.68
1119.03
1118.73
1118.5
1118.45
1118.6
1118.96
1117.37
1116.91
1116.71
1116.71
1116.94
1117.42
1117.07
1116.92
1116.99
1117.31
1117.65
1117.24
1117.04
1117.06
1117.33
1117.65
1117.35
1117.23
1117.33
1117.67
1117.9
1117.62
1117.53
1117.64
1117.98
1117.88
1117.53
1117.37
1117.43
1117.75
1118.38
1118.15
1118.09
1118.24
1118.6
1118.89
1118.68
1118.66
1118.82
1119.19
1118.36
1118.11
1118.04
1118.18
1118.53
1117.93
1118.19
1117.95
1118.24
1117.29
1117.6
1117.28
1117.55
1117.97
1118.01
1118.25
1118.2
1117.3
1117.32
1117.58
1117.5
1118.6
1119.26
1118.83
1119.46
1118.6
1119.2
1118.88
1119.46
1118.89
1118.65
1118.75
1118.59
1119.11
1119.35
1118.6
1118.89
1118.47
1118.79
1117.95
1118.26
1117.77
1118.07
1119.22
1119.54
1119.03
1119.4
1119.7
1120.08
1119.86
1120.38
1120.04
1120.53
1119.81
1120.43
1120.05
1120.59
1119.71
1120.55
1119.87
1120.61
1120.19
1120.95
1120.63
1121.4
1118.21
1118.38
1118.35
1118.54
1117.38
1117.43
1117.52
1117.57
1119.14
1119.63
1119.02
1119.46
1118.56
1118.73
1118.84
1118.97
1117.73
1117.74
1117.98
1117.95
1119.36
1119.83
1119.66
1120.08
1119.97
1120.9
1120.75
1121.81
1119.89
1120.89
1120.61
1121.72
1120.18
1121.06
1120.95
1121.97
1120.5
1121.37
1121.21
1122.22
1119.9
1120.21
1120.48
1120.97
1119.86
1120.11
1120.57
1121.03
1119.77
1119.9
1120.72
1121.11
1118.18
1117.31
1119.03
1119.94
1121.09
1117.29
1118.11
1118.96
1119.91
1121.29
1117.36
1118.29
1119.36
1120.53
1121.73
1120.71
1120.93
1122.24
1122.69
1120.48
1120.7
1122.15
1122.6
1120.13
1120.31
1122.04
1122.49
1117.3
1117.42
1118.18
1118.32
1119.1
1119.24
1120.2
1120.39
1122.18
1122.66
1117.36
1117.48
1118.39
1118.68
1119.55
1119.93
1120.9
1121.36
1122.71
1123.3
1118.63
1119.15
1118.77
1119.3
1117.46
1117.5
1117.58
1117.59
1120.08
1120.85
1119.91
1120.63
1118.88
1119.5
1119.12
1119.77
1117.72
1117.77
1117.93
1118
1120.2
1121.06
1120.46
1121.38
1121.65
1122.64
1123.64
1124.9
1121.39
1122.35
1123.28
1124.46
1121.85
1122.88
1123.95
1125.25
1122.04
1123.13
1124.11
1125.39
1121.01
1121.2
1122.39
1122.41
1120.79
1121
1122.33
1122.33
1120.45
1120.76
1122.27
1122.29
1117.67
1118.11
1118.59
1119.01
1119.48
1119.84
1120.58
1120.92
1122.38
1122.37
1117.73
1118.21
1119.09
1119.53
1120.29
1120.61
1121.49
1121.63
1122.73
1122.63
1116.24
1116.22
1116.51
1116.39
1116.71
1116.69
1117
1116.88
1115.9
1115.66
1116.16
1115.91
1115.91
1115.69
1116.19
1115.95
1116.15
1115.91
1116.11
1115.93
1115.74
1115.97
1116.65
1116.95
1117.13
1117.42
1116.48
1116.82
1116.37
1116.68
1116.29
1116.6
1115.52
1115.43
1115.76
1115.65
1115.52
1115.41
1115.78
1115.64
1115.54
1115.38
1115.74
1115.55
1116.02
1115.8
1116.3
1116.03
1116.13
1116.12
1116.26
1116.21
1116.67
1116.66
1116.81
1116.78
1115.9
1115.82
1115.78
1115.75
1116.45
1116.34
1116.67
1116.51
1117.01
1116.93
1117.24
1117.12
1116.07
1115.94
1116.28
1116.09
1115.64
1115.45
1115.6
1115.5
1115.53
1115.39
1115.54
1115.46
1115.8
1115.58
1115.7
1115.58
1116
1115.74
1115.83
1115.68
1115.42
1115.46
1115.34
1115.41
1115.44
1115.48
1115.34
1115.42
1115.49
1115.52
1115.36
1115.43
1116.09
1116.61
1115.74
1115.51
1115.39
1116.62
1116.11
1115.77
1115.54
1115.44
1116.6
1116.08
1115.73
1115.53
1115.46
1115.63
1115.93
1115.61
1115.94
1115.63
1115.91
1115.6
1115.91
1115.64
1115.89
1115.58
1115.86
1116.62
1116.74
1116.11
1116.26
1115.81
1115.99
1115.61
1115.83
1115.56
1115.82
1116.57
1116.62
1116.06
1116.12
1115.73
1115.86
1115.57
1115.76
1115.56
1115.82
1116.04
1116.02
1116.15
1116.07
1116.58
1116.51
1116.7
1116.57
1115.81
1115.84
1115.73
1115.8
1116.31
1116.19
1116.48
1116.37
1116.88
1116.71
1117.07
1116.9
1115.95
1115.96
1116.11
1116.12
1115.65
1115.79
1115.66
1115.92
1115.59
1115.76
1115.6
1115.87
1115.76
1115.89
1115.75
1116.01
1115.9
1116.04
1115.87
1116.13
1116.3
1116.64
1116.41
1116.82
1116.25
1116.62
1116.37
1116.8
1116.21
1116.62
1116.32
1116.82
1116.98
1117.43
1116.53
1116.99
1116.28
1116.74
1116.15
1116.62
1116.28
1116.86
1116.82
1117.33
1116.36
1116.9
1116.16
1116.72
1116.14
1116.73
1116.33
1117
1115.62
1116.23
1117.25
1118.91
1115.83
1116.43
1117.46
1119.13
1115.61
1116.21
1117.23
1118.9
1115.81
1116.4
1117.43
1119.08
1115.6
1116.19
1117.16
1118.78
1115.73
1116.31
1117.29
1118.91
1115.95
1116.51
1117.51
1119.14
1116.13
1116.65
1117.64
1119.24
1115.66
1116.24
1117.18
1118.77
1115.76
1116.35
1117.2
1118.62
1115.62
1116.22
1117.12
1118.63
1115.74
1116.34
1117.17
1118.54
1115.74
1116.3
1117.27
1118.89
1115.81
1116.38
1117.24
1118.66
1115.85
1116.39
1117.34
1118.92
1115.88
1116.42
1117.27
1118.67
1115.55
1116.16
1117.12
1118.7
1115.65
1116.25
1117.12
1118.53
1115.57
1116.17
1117.12
1118.69
1115.67
1116.27
1117.13
1118.53
1115.6
1116.2
1117.11
1118.64
1115.7
1116.3
1117.15
1118.52
1115.66
1116.26
1117.12
1118.56
1115.73
1116.34
1117.17
1118.5
1115.75
1116.35
1117.17
1118.47
1115.88
1116.47
1117.29
1118.31
1116.17
1116.77
1117.6
1118.55
1115.87
1116.47
1117.29
1118.31
1116.17
1116.77
1117.6
1118.56
1115.88
1116.48
1117.3
1118.32
1116.18
1116.78
1117.61
1118.56
1115.89
1116.49
1117.3
1118.32
1116.18
1116.79
1117.63
1118.57
1115.9
1116.51
1117.31
1118.31
1116.2
1116.81
1117.64
1118.59
1115.99
1116.59
1117.39
1118.38
1116.26
1116.87
1117.69
1118.64
1115.94
1116.55
1117.34
1118.35
1116.22
1116.84
1117.66
1118.6
1116.07
1116.65
1117.44
1118.43
1116.34
1116.93
1117.74
1118.68
1116.15
1116.71
1117.49
1118.47
1116.43
1117
1117.79
1118.72
1121.34
1123.28
1124.92
1126.24
1127.25
1121.47
1123.38
1125.01
1126.33
1127.34
1121.34
1123.28
1124.92
1126.24
1127.25
1121.47
1123.38
1125.01
1126.32
1127.33
1121.33
1123.28
1124.92
1126.24
1127.25
1121.4
1123.32
1124.95
1126.26
1127.28
1121.48
1123.39
1125.01
1126.33
1127.33
1121.51
1123.4
1125.01
1126.33
1127.33
1121.35
1123.29
1124.92
1126.24
1127.25
1121.45
1123.44
1125.07
1126.39
1127.39
1121.35
1123.31
1124.95
1126.27
1127.28
1121.47
1123.46
1125.09
1126.41
1127.42
1121.38
1123.31
1124.94
1126.25
1127.26
1121.49
1123.47
1125.1
1126.41
1127.42
1121.39
1123.32
1124.94
1126.25
1127.26
1121.53
1123.49
1125.12
1126.43
1127.44
1121.35
1123.32
1124.96
1126.28
1127.29
1121.48
1123.49
1125.13
1126.45
1127.46
1121.36
1123.33
1124.97
1126.29
1127.3
1121.49
1123.49
1125.13
1126.45
1127.46
1121.37
1123.35
1124.99
1126.31
1127.32
1121.5
1123.51
1125.15
1126.47
1127.48
1121.43
1123.43
1125.06
1126.38
1127.39
1121.54
1123.55
1125.19
1126.5
1127.51
1121.52
1123.52
1125.16
1126.47
1127.48
1125.48
1125.84
1125.53
1125.89
1125.64
1126.01
1125.82
1126.18
1126.11
1126.42
1126.84
1127.25
1126.51
1126.87
1127.13
1127.58
1127.38
1127.84
1129.98
1134.53
1138.17
1140.91
1142.72
1129.88
1134.48
1138.16
1140.92
1142.76
1130.03
1134.56
1138.19
1140.93
1142.73
1129.94
1134.52
1138.19
1140.95
1142.78
1130.12
1134.62
1138.24
1140.96
1142.76
1130.03
1134.58
1138.23
1140.98
1142.81
1130.26
1134.72
1138.31
1141.01
1142.81
1130.16
1134.67
1138.29
1141.03
1142.85
1130.46
1134.86
1138.41
1141.09
1142.87
1130.33
1134.78
1138.38
1141.1
1142.9
1130.95
1135.19
1138.66
1141.29
1143.04
1130.86
1135.14
1138.64
1141.3
1143.07
1130.7
1135.02
1138.52
1141.18
1142.95
1130.57
1134.94
1138.49
1141.18
1142.98
1131.18
1135.37
1138.79
1141.4
1143.14
1131.13
1135.35
1138.79
1141.42
1143.18
1131.41
1135.55
1138.94
1141.52
1143.24
1131.38
1135.55
1138.95
1141.54
1143.29
1117.23
1117.68
1117.35
1116.88
1116.25
1116.51
1116.24
1116.54
1116.72
1117.03
1116.72
1116.98
1121.93
1121.85
1121.64
1121.32
1120.88
1120.35
1121.96
1121.89
1121.69
1121.39
1120.99
1120.52
1122.14
1122.45
1122.05
1122.34
1121.82
1122.09
1121.45
1121.66
1120.96
1121.12
1120.38
1120.56
1119.79
1119.25
1118.79
1118.41
1118.13
1117.92
1120.02
1119.53
1119.09
1118.72
1118.44
1118.24
1121.55
1121.4
1121.42
1121.63
1122.01
1121.46
1121.31
1121.34
1121.54
1121.93
1121.26
1121.1
1121.13
1121.33
1121.71
1120.93
1120.77
1120.79
1120.99
1121.38
1120.49
1120.32
1120.34
1120.54
1120.92
1119.95
1119.78
1119.79
1119.98
1120.36
1121.58
1121.43
1121.45
1121.66
1122.04
1121.5
1121.35
1121.37
1121.58
1121.96
1121.31
1121.15
1121.17
1121.38
1121.76
1121
1120.84
1120.86
1121.06
1121.44
1120.59
1120.43
1120.44
1120.64
1121.02
1120.11
1119.94
1119.95
1120.14
1120.52
1121.76
1121.61
1121.63
1121.84
1122.22
1122.07
1121.92
1121.95
1122.15
1122.53
1121.66
1121.51
1121.54
1121.74
1122.12
1121.96
1121.81
1121.84
1122.04
1122.42
1121.43
1121.28
1121.3
1121.51
1121.89
1121.7
1121.55
1121.57
1121.78
1122.16
1121.06
1120.9
1120.92
1121.13
1121.51
1121.27
1121.12
1121.14
1121.34
1121.72
1120.56
1120.4
1120.41
1120.61
1120.99
1120.72
1120.56
1120.58
1120.77
1121.15
1119.98
1119.81
1119.82
1120.01
1120.39
1120.16
1119.98
1119.99
1120.18
1120.56
1119.37
1119.19
1119.19
1119.37
1119.75
1118.82
1118.62
1118.6
1118.77
1119.15
1118.34
1118.12
1118.07
1118.23
1118.59
1117.93
1117.67
1117.6
1117.74
1118.09
1117.61
1117.32
1117.23
1117.34
1117.68
1117.38
1117.08
1116.96
1117.07
1117.4
1119.6
1119.42
1119.42
1119.6
1119.98
1119.1
1118.9
1118.89
1119.06
1119.43
1118.65
1118.43
1118.4
1118.56
1118.92
1118.26
1118.02
1117.97
1118.11
1118.47
1117.96
1117.7
1117.63
1117.76
1118.12
1117.74
1117.48
1117.4
1117.53
1117.88
1121.89
1121.72
1121.43
1121.02
1120.5
1119.88
1121.92
1121.76
1121.48
1121.09
1120.61
1120.07
1122.09
1122.4
1121.91
1122.21
1121.6
1121.85
1121.14
1121.33
1120.55
1120.69
1119.88
1120.02
1119.23
1118.64
1118.18
1117.87
1117.75
1117.79
1119.51
1118.99
1118.57
1118.28
1118.14
1118.13
1121.51
1121.35
1121.38
1121.59
1121.97
1121.34
1121.19
1121.21
1121.42
1121.8
1121.05
1120.89
1120.92
1121.12
1121.51
1120.63
1120.48
1120.5
1120.7
1121.09
1120.1
1119.94
1119.96
1120.17
1120.55
1119.48
1119.32
1119.33
1119.53
1119.91
1121.54
1121.39
1121.41
1121.62
1122
1121.38
1121.22
1121.25
1121.45
1121.84
1121.1
1120.94
1120.97
1121.17
1121.55
1120.71
1120.55
1120.57
1120.77
1121.16
1120.22
1120.06
1120.08
1120.28
1120.66
1119.67
1119.5
1119.52
1119.71
1120.1
1121.71
1121.56
1121.59
1121.79
1122.18
1122.02
1121.87
1121.9
1122.11
1122.49
1121.53
1121.38
1121.41
1121.61
1122
1121.83
1121.67
1121.7
1121.91
1122.29
1121.21
1121.06
1121.09
1121.29
1121.67
1121.47
1121.32
1121.34
1121.55
1121.93
1120.75
1120.59
1120.62
1120.82
1121.21
1120.95
1120.79
1120.81
1121.02
1121.4
1120.16
1120
1120.02
1120.22
1120.61
1120.3
1120.14
1120.16
1120.36
1120.75
1119.48
1119.31
1119.33
1119.53
1119.91
1119.62
1119.45
1119.47
1119.66
1120.05
1118.82
1118.65
1118.65
1118.85
1119.23
1118.22
1118.03
1118.02
1118.21
1118.59
1117.73
1117.52
1117.5
1117.66
1118.04
1117.4
1117.16
1117.1
1117.25
1117.61
1117.24
1116.97
1116.88
1117.01
1117.36
1117.25
1116.95
1116.84
1116.95
1117.29
1119.1
1118.92
1118.93
1119.12
1119.5
1118.57
1118.38
1118.37
1118.56
1118.94
1118.13
1117.93
1117.9
1118.07
1118.45
1117.82
1117.6
1117.55
1117.71
1118.08
1117.66
1117.41
1117.35
1117.49
1117.85
1117.64
1117.38
1117.3
1117.43
1117.78
1117.74
1117.67
1118.57
1119.23
1119.27
1119.42
1118.82
1117.35
1117.53
1117.42
1117.97
1117.89
1117.8
1118.22
1118.31
1118.56
1117.3
1117.34
1117.82
1117.86
1117.58
1117.66
1118.02
1118.11
1118.7
1118.71
1118.2
1118.2
1117.51
1117.51
1117.29
1117.47
1117.53
1117.34
1117.97
1118.5
1117.85
1116.89
1116.46
1116.29
1116.32
1116.58
1117.03
1116.67
1116.52
1116.59
1116.91
1118.15
1117.96
1117.95
1118.14
1118.52
1118.82
1118.65
1118.66
1118.85
1119.24
1118.86
1118.68
1118.68
1118.87
1119.26
1119.02
1118.85
1118.85
1119.05
1119.43
1118.4
1118.22
1118.22
1118.41
1118.79
1116.59
1116.21
1116.05
1116.11
1116.36
1116.8
1116.44
1116.3
1116.37
1116.65
1116.87
1116.56
1116.45
1116.55
1116.89
1117.32
1116.99
1116.88
1116.98
1117.3
1117.43
1117.19
1117.14
1117.29
1117.66
1117.3
1117.03
1116.95
1117.08
1117.43
1117.78
1117.56
1117.53
1117.69
1118.06
1117.85
1117.62
1117.58
1117.74
1118.11
1118.12
1117.91
1117.88
1118.05
1118.42
1116.56
1116.19
1116.04
1116.1
1116.36
1116.82
1116.53
1116.44
1116.56
1116.9
1117.36
1117.13
1117.09
1117.24
1117.61
1117.41
1117.19
1117.16
1117.33
1117.7
1117.1
1116.86
1116.8
1116.95
1117.31
1117.2
1116.97
1116.92
1117.08
1117.44
1117.58
1117.37
1117.35
1117.52
1117.89
1117.67
1117.47
1117.45
1117.63
1118.01
1118.28
1118.08
1118.07
1118.25
1118.63
1118.29
1118.1
1118.09
1118.28
1118.66
1117.76
1117.56
1117.53
1117.7
1118.08
1117.77
1117.57
1117.55
1117.73
1118.1
1116.71
1116.31
1116.15
1116.2
1116.46
1116.93
1116.6
1116.48
1116.57
1116.9
1116.66
1116.32
1116.18
1116.26
1116.56
1116.96
1116.68
1116.6
1116.72
1117.07
1117.05
1116.81
1116.75
1116.89
1117.25
1116.81
1116.51
1116.41
1116.53
1116.87
1117.53
1117.32
1117.3
1117.47
1117.84
1118.08
1117.89
1117.88
1118.07
1118.45
1117.4
1117.19
1117.16
1117.32
1117.69
1118.05
1117.69
1117.55
1117.61
1117.85
1118.32
1117.84
1117.87
1117.19
1117.18
1117.91
1117.96
1117.22
1117.25
1118.54
1119.27
1118.55
1119.21
1118.62
1118.58
1119.09
1117.83
1117.86
1117.17
1117.15
1117.89
1117.95
1117.19
1117.24
1118.58
1119.35
1118.59
1119.27
1118.65
1118.6
1119.14
1117.84
1117.87
1117.16
1117.14
1117.91
1117.97
1117.2
1117.24
1118.62
1119.55
1118.62
1119.44
1118.69
1118.63
1119.28
1117.97
1118
1117.28
1117.26
1118.04
1118.11
1117.31
1117.37
1118.8
1119.79
1118.8
1119.67
1118.85
1118.78
1119.48
1118.2
1118.24
1117.52
1117.49
1118.28
1118.36
1117.55
1117.6
1119.04
1119.96
1119.03
1119.87
1119.08
1119.02
1119.68
1118.62
1118.65
1117.95
1117.93
1118.69
1118.75
1117.98
1118.03
1119.41
1120.26
1119.4
1120.17
1119.43
1119.38
1119.99
1116.15
1116.14
1116.61
1116.61
1116.15
1116.16
1116.62
1116.64
1115.81
1115.55
1115.82
1115.59
1115.83
1115.87
1115.67
1116.11
1116.12
1116.58
1116.58
1116.14
1116.16
1116.6
1116.62
1115.76
1115.55
1115.79
1115.6
1115.81
1115.87
1115.68
1116.1
1116.11
1116.57
1116.56
1116.14
1116.17
1116.6
1116.63
1115.78
1115.64
1115.82
1115.69
1115.86
1115.92
1115.77
1116.22
1116.23
1116.69
1116.67
1116.27
1116.31
1116.72
1116.75
1115.93
1115.86
1115.97
1115.9
1116.03
1116.1
1115.97
1116.47
1116.48
1116.93
1116.91
1116.53
1116.59
1116.96
1117
1116.21
1116.18
1116.25
1116.21
1116.31
1116.39
1116.27
1116.92
1116.94
1117.38
1117.36
1116.99
1117.04
1117.41
1117.44
1116.67
1116.59
1116.71
1116.63
1116.76
1116.83
1116.69
1121.7
1121.59
1121.36
1121.17
1120.86
1120.67
1120.17
1120.01
1120.3
1120.12
1120.85
1120.66
1121.24
1121.07
1121.56
1121.43
1120.71
1120.46
1120.38
1120.04
1119.87
1119.55
1119.57
1119.17
1122.13
1122.85
1122.01
1122.67
1121.81
1122.5
1121.61
1122.25
1121.11
1121.49
1120.76
1121.24
1122.08
1121.68
1119.97
1119.37
1119.65
1119.2
1119.21
1118.7
1118.82
1118.43
1120.7
1120.07
1120.34
1119.86
1121.27
1120.66
1123.67
1124.15
1123.33
1123.83
1123.31
1123.92
1122.91
1123.47
1122.81
1123.64
1122.2
1122.96
1121.72
1122.48
1121.18
1121.95
1120.53
1120.42
1120.01
1119.96
1119.42
1119.28
1119
1118.86
1120.98
1121.12
1121.59
1121.62
1119.57
1119.57
1119.17
1119.25
1118.63
1118.51
1118.27
1118.21
1120.47
1120.71
1120.03
1120.38
1121.93
1122.85
1122.28
1123.32
1122.59
1123.54
1122.8
1123.88
1121.38
1122.28
1121.85
1122.87
1120.89
1121.78
1121.52
1122.52
1124.83
1125.89
1125
1126.06
1124.5
1125.49
1124.82
1125.83
1123.96
1124.72
1124.52
1125.35
1121.27
1119.95
1122.46
1123.36
1124.33
1120.14
1121.53
1122.95
1123.91
1124.96
1119.8
1121.04
1122.24
1123.37
1124.48
1126.88
1127.36
1127.41
1127.84
1126.37
1126.92
1127.07
1127.53
1125.5
1126.12
1126.49
1127.04
1120.44
1120.94
1121.96
1122.64
1123.36
1124.07
1124.48
1125.18
1125.95
1126.66
1120.02
1120.43
1121.41
1122.12
1122.71
1123.53
1124.01
1124.88
1125.64
1126.56
1120.77
1121.57
1120.2
1120.9
1119.41
1119.64
1118.89
1119.02
1121.58
1122.52
1122.14
1123.14
1119.71
1120.42
1119.39
1120.07
1118.48
1118.6
1118.18
1118.27
1121.06
1122.03
1120.74
1121.68
1123.15
1124.29
1125.09
1126.47
1123.6
1124.8
1125.39
1126.75
1122.73
1123.83
1124.8
1126.16
1122.33
1123.45
1124.38
1125.67
1127.5
1127.7
1128.09
1127.6
1127.67
1128.03
1127.17
1127.42
1127.84
1127.35
1127.45
1127.83
1126.51
1126.85
1127.32
1126.98
1127.14
1127.57
1121.56
1122.26
1123.01
1123.37
1123.98
1124.64
1124.74
1125.27
1125.85
1125.73
1126.17
1126.72
1126.69
1126.91
1127.42
1121
1121.79
1122.64
1123.07
1123.89
1124.73
1124.49
1125.21
1125.96
1125.63
1126.17
1126.83
1126.68
1126.97
1127.56
1118.37
1118.12
1118.15
1117.82
1119.05
1118.73
1118.79
1118.4
1118.24
1117.71
1118.18
1117.69
1118.08
1117.61
1117.97
1117.53
1117.61
1117.83
1117.48
1117.73
1117.52
1117.34
1117.57
1117.27
1118.09
1117.76
1117.47
1117.19
1117.27
1117
1117.24
1116.96
1117.18
1116.71
1117.27
1116.83
1117.11
1116.63
1117.13
1116.68
1117.05
1116.52
1116.93
1116.44
1116.84
1116.41
1116.6
1116.25
1117.78
1117.56
1117.49
1117.24
1118.49
1118.3
1118.15
1117.94
1117.03
1116.73
1117.28
1117.01
1117.2
1116.96
1116.92
1116.72
1117.82
1117.63
1117.51
1117.36
1116.78
1116.49
1116.52
1116.27
1116.64
1116.23
1116.4
1116.15
1116.85
1116.4
1116.64
1116.35
1116.44
1116.07
1116.18
1115.97
1116.21
1115.9
1115.99
1115.82
1117.2
1117.42
1116.76
1116.99
1117.19
1117.43
1116.72
1116.97
1117.18
1117.39
1116.67
1116.89
1117.99
1118.83
1117.47
1117.05
1116.61
1119
1118.17
1117.68
1117.27
1116.8
1118.68
1117.86
1117.27
1116.88
1116.56
1117.81
1118.36
1117.39
1117.92
1117.78
1118.3
1117.33
1117.83
1117.7
1118.19
1117.21
1117.68
1119.22
1119.64
1118.34
1118.77
1117.84
1118.28
1117.46
1117.9
1117.02
1117.46
1118.81
1119.06
1117.98
1118.22
1117.41
1117.7
1117.04
1117.4
1116.76
1117.21
1117.51
1117.59
1117.18
1117.18
1118.27
1118.33
1117.88
1117.82
1116.73
1116.84
1117.01
1117.2
1116.93
1116.85
1116.69
1116.59
1117.57
1117.45
1117.3
1117.15
1116.51
1116.55
1116.29
1116.32
1116.46
1116.69
1116.33
1116.69
1116.71
1117.01
1116.53
1116.94
1116.25
1116.42
1116.15
1116.47
1116.07
1116.22
1116
1116.28
1119.09
1119.82
1120.51
1118.82
1119.65
1120.34
1118.99
1119.73
1120.43
1118.7
1119.54
1120.26
1118.84
1119.57
1120.29
1118.51
1119.38
1120.15
1120.2
1120.91
1121.66
1119.35
1120.07
1120.85
1118.86
1119.63
1120.42
1118.52
1119.28
1120.05
1118.3
1119.21
1120.05
1119.51
1120.27
1121.13
1118.69
1119.47
1120.34
1118.24
1119.07
1119.96
1118.04
1118.91
1119.81
1118.09
1119.05
1119.97
1116.51
1116.83
1117.66
1119.18
1116.65
1116.99
1117.85
1119.39
1116.45
1116.78
1117.61
1119.15
1116.54
1116.9
1117.76
1119.31
1116.37
1116.72
1117.51
1119.01
1116.34
1116.72
1117.58
1119.1
1116.36
1116.79
1117.71
1119.27
1116.28
1116.76
1117.71
1119.28
1116.19
1116.6
1117.43
1118.95
1116.21
1116.65
1117.42
1118.78
1116.32
1116.69
1117.44
1118.85
1116.36
1116.76
1117.46
1118.75
1116.08
1116.53
1117.43
1119
1116.09
1116.57
1117.37
1118.77
1115.97
1116.47
1117.4
1118.96
1115.97
1116.49
1117.32
1118.71
1116.54
1116.81
1117.57
1119.01
1116.73
1116.96
1117.61
1118.86
1116.52
1116.81
1117.55
1118.98
1116.72
1116.97
1117.61
1118.85
1116.49
1116.8
1117.52
1118.91
1116.68
1116.95
1117.59
1118.82
1116.49
1116.82
1117.5
1118.81
1116.64
1116.94
1117.57
1118.77
1116.51
1116.86
1117.52
1118.71
1117.03
1117.22
1117.8
1118.7
1117.36
1117.53
1118.12
1118.97
1116.99
1117.2
1117.79
1118.68
1117.33
1117.52
1118.12
1118.96
1116.92
1117.17
1117.76
1118.67
1117.26
1117.48
1118.1
1118.94
1116.82
1117.11
1117.72
1118.63
1117.17
1117.44
1118.07
1118.92
1116.7
1117.04
1117.68
1118.59
1117.06
1117.38
1118.04
1118.9
1116.45
1116.91
1117.61
1118.56
1116.78
1117.22
1117.94
1118.83
1116.57
1116.97
1117.64
1118.58
1116.92
1117.3
1117.99
1118.87
1116.35
1116.84
1117.58
1118.55
1116.65
1117.15
1117.89
1118.8
1116.24
1116.77
1117.53
1118.51
1116.53
1117.07
1117.84
1118.76
1121.51
1123.38
1124.98
1126.28
1127.28
1121.63
1123.48
1125.07
1126.37
1127.37
1121.49
1123.37
1124.97
1126.27
1127.28
1121.6
1123.46
1125.06
1126.36
1127.36
1121.47
1123.36
1124.97
1126.27
1127.27
1121.52
1123.39
1124.99
1126.29
1127.3
1121.56
1123.44
1125.04
1126.35
1127.35
1121.54
1123.42
1125.03
1126.33
1127.34
1121.45
1123.35
1124.96
1126.26
1127.27
1121.54
1123.49
1125.1
1126.41
1127.41
1121.47
1123.39
1124.99
1126.3
1127.3
1121.57
1123.52
1125.13
1126.44
1127.44
1121.45
1123.35
1124.96
1126.27
1127.27
1121.56
1123.51
1125.12
1126.43
1127.43
1121.42
1123.33
1124.95
1126.26
1127.26
1121.55
1123.51
1125.13
1126.44
1127.44
1121.52
1123.42
1125.02
1126.32
1127.33
1121.66
1123.59
1125.19
1126.49
1127.49
1121.52
1123.43
1125.03
1126.33
1127.33
1121.65
1123.59
1125.2
1126.49
1127.5
1121.52
1123.44
1125.05
1126.35
1127.35
1121.66
1123.6
1125.21
1126.51
1127.51
1121.56
1123.5
1125.11
1126.41
1127.42
1121.68
1123.63
1125.24
1126.54
1127.54
1121.64
1123.59
1125.2
1126.5
1127.5
1129.67
1129.98
1129.53
1129.84
1129.28
1129.63
1128.96
1129.37
1128.65
1129.12
1128.15
1128.69
1128.4
1128.93
1127.9
1128.42
1127.64
1128.11
1133.03
1136.7
1139.79
1142.19
1143.84
1132.97
1136.67
1139.8
1142.21
1143.89
1132.96
1136.67
1139.77
1142.18
1143.82
1132.92
1136.65
1139.78
1142.21
1143.88
1132.84
1136.6
1139.72
1142.14
1143.79
1132.8
1136.58
1139.73
1142.18
1143.85
1132.67
1136.5
1139.66
1142.09
1143.75
1132.64
1136.49
1139.67
1142.13
1143.81
1132.48
1136.37
1139.57
1142.03
1143.7
1132.48
1136.38
1139.6
1142.07
1143.76
1132.06
1136.06
1139.34
1141.84
1143.53
1132.1