/*--------------------------------*- C++ -*----------------------------------*\
  =========                 |
  \\      /  F ield         | OpenFOAM: The Open Source CFD Toolbox
   \\    /   O peration     | Website:  https://openfoam.org
    \\  /    A nd           | Version:  13
     \\/     M anipulation  |
\*---------------------------------------------------------------------------*/
FoamFile
{
    format      ascii;
    class       volScalarField;
    location    "4.831886";
    object      T;
}
// * * * * * * * * * * * * * * * * * * * * * * * * * * * * * * * * * * * * * //

dimensions      [0 0 0 1 0 0 0];

internalField   nonuniform List<scalar> 
5712
(
357.958
357.545
356.879
356.27
355.559
354.92
354.059
353.505
354.755
354.086
355.97
355.317
356.982
356.393
357.841
357.389
354.777
353.79
353.699
352.383
352.893
351.683
351.85
350.331
358.827
360.414
358.416
359.95
357.747
359.283
357.116
358.629
355.337
356.514
354.145
355.643
357.922
356.759
352.47
350.592
351.138
349.76
350.685
349.026
349.172
347.946
354.15
352.26
352.882
351.46
355.637
353.817
362.277
363.679
361.597
363.125
361.142
362.877
360.288
361.971
359.506
361.767
357.912
360.144
356.628
358.887
355.046
357.372
353.628
353.13
351.969
351.627
351.079
350.553
349.655
349.147
354.295
354.352
356.124
355.879
350.589
350.424
349.361
349.463
348.422
348.02
347.304
347.107
352.802
353.12
351.474
352.145
356.685
359.306
357.198
360.014
358.527
361.114
358.715
361.571
355.146
357.76
355.967
358.772
353.753
356.372
355.004
357.792
365.206
367.817
365.685
368.16
364.168
366.69
365.034
367.443
362.517
364.544
363.978
366.001
355.872
352.933
358.604
360.638
363.145
353.621
356.766
360.116
362.229
364.763
352.356
355.097
357.769
360.398
363.23
370.238
371.823
371.125
372.426
368.966
370.769
370.233
371.636
366.7
368.737
368.68
370.343
354.705
356.598
358.131
360.516
361.33
363.712
363.773
366.029
367.112
369.205
353.152
354.65
356.253
358.558
359.147
361.689
362.098
364.761
365.99
368.671
354.135
356.634
352.391
354.626
351.047
352.157
349.413
350.261
355.603
358.383
357.271
360.235
350.98
353.199
350.065
352.216
348.165
349.002
347.292
348.082
354.155
356.96
353.242
356
359.35
362.534
364.099
367.739
360.711
364.079
365.048
368.652
358.16
361.234
363.251
366.828
357.078
360.206
362.146
365.562
373.104
374.715
376.786
372.98
374.355
376.348
372.266
374.011
376.166
372.308
373.758
375.868
370.567
372.515
374.816
371.31
372.985
375.301
358.981
361.724
364.706
363.263
365.851
368.657
366.29
368.743
371.403
368.28
370.562
373.179
370.537
372.528
375.189
356.891
360.001
363.398
361.909
365.214
368.682
365.155
368.307
371.613
367.799
370.619
373.759
370.607
372.964
376.007
349.63
348.623
348.79
347.507
351.09
349.879
350.144
348.651
350.164
348.864
349.91
348.736
349.463
348.346
349.047
348.044
347.611
348.417
346.91
347.891
347.765
347.106
346.592
345.565
347.586
346.482
347.033
345.945
346.149
345.209
346.682
345.65
347.502
346.35
347.752
346.779
347.099
345.99
347.14
346.221
346.597
345.486
346.093
345.221
345.717
345.102
344.881
344.551
347.548
346.772
346.428
345.62
349.028
348.37
347.776
347.099
345.581
344.637
346.585
345.653
345.417
344.685
344.465
343.913
346.664
346.069
345.638
345.222
344.676
343.806
343.792
343.116
344.922
344.34
344.127
344.033
345.73
344.972
345.007
344.755
344.181
343.8
343.4
343.444
343.409
343.242
342.799
342.965
347.921
348.901
346.598
347.515
347.712
348.732
346.409
347.35
347.374
348.264
346.096
346.919
348.565
350.422
347.497
346.588
345.729
351.064
349.251
348.373
347.467
346.451
349.838
347.996
346.713
345.925
345.503
350.393
352.375
348.978
350.872
350.094
352.003
348.653
350.455
349.473
351.287
348.042
349.702
351.937
353.578
349.974
351.628
348.991
350.646
348.172
349.835
347.182
348.735
350.409
351.468
348.51
349.572
347.258
348.428
346.546
347.906
346.19
347.741
346.788
347.413
345.613
345.993
348.47
349.065
347.117
347.416
344.764
345.416
345.789
346.659
344.754
344.985
344.028
344.233
346.122
346.283
345.315
345.438
343.981
344.499
343.33
343.829
344.425
345.398
344.655
345.94
345.333
346.518
345.34
346.786
343.726
344.548
344.104
345.255
343.17
343.974
343.613
344.657
355.049
357.766
360.411
354.096
357.144
359.79
354.528
357.282
359.985
353.53
356.59
359.351
353.661
356.365
359.111
352.615
355.81
358.753
355.763
358.46
361.43
353.811
356.55
359.536
352.83
355.658
358.672
352.115
354.936
357.869
351.638
354.988
358.19
353.311
356.278
359.644
351.44
354.413
357.763
350.466
353.561
356.982
350.21
353.426
356.865
350.73
354.241
357.761
346.283
347.862
351.001
356.285
346.817
348.483
351.711
357.027
346.05
347.692
350.852
356.19
346.406
348.167
351.433
356.78
345.741
347.478
350.533
355.727
345.646
347.53
350.758
356.063
345.791
347.842
351.28
356.688
345.531
347.77
351.335
356.758
345.062
347.076
350.266
355.528
345.164
347.333
350.317
355.088
345.525
347.391
350.307
355.206
345.677
347.689
350.484
354.993
344.712
346.872
350.288
355.739
344.739
347.041
350.183
355.073
344.369
346.672
350.193
355.613
344.387
346.801
350.025
354.903
346.374
347.829
350.724
355.725
347.112
348.421
350.949
355.363
346.3
347.806
350.674
355.646
347.068
348.435
350.957
355.33
346.192
347.795
350.592
355.431
346.891
348.384
350.923
355.251
346.148
347.879
350.573
355.152
346.728
348.355
350.881
355.104
346.212
348.073
350.677
354.903
348.252
349.439
351.777
355.075
349.539
350.652
353.076
356.284
348.094
349.361
351.721
355.016
349.372
350.578
353.036
356.259
347.81
349.226
351.649
354.967
349.084
350.453
352.979
356.21
347.411
349.025
351.509
354.849
348.704
350.276
352.883
356.144
346.921
348.77
351.343
354.726
348.278
350.079
352.784
356.084
346.066
348.314
351.149
354.653
347.278
349.53
352.46
355.879
346.472
348.538
351.25
354.696
347.758
349.799
352.618
355.972
345.725
348.119
351.065
354.62
346.868
349.296
352.328
355.776
345.413
347.923
350.941
354.522
346.517
349.08
352.195
355.674
363.975
370.109
375.374
379.818
383.516
364.437
370.503
375.756
380.197
383.895
363.932
370.087
375.361
379.807
383.506
364.368
370.457
375.719
380.164
383.863
363.846
370.05
375.336
379.786
383.487
364.046
370.171
375.446
379.896
383.598
364.257
370.388
375.67
380.125
383.828
364.181
370.331
375.627
380.09
383.797
363.799
370.025
375.321
379.777
383.481
364.225
370.605
375.926
380.386
384.088
363.885
370.157
375.457
379.911
383.613
364.337
370.726
376.044
380.501
384.201
363.814
370.044
375.347
379.807
383.514
364.291
370.685
376.013
380.477
384.183
363.732
369.989
375.306
379.774
383.482
364.293
370.713
376.054
380.524
384.232
364.048
370.291
375.574
380.019
383.717
364.628
370.976
376.271
380.716
384.413
364.046
370.309
375.598
380.046
383.744
364.621
370.981
376.28
380.727
384.426
364.072
370.377
375.676
380.127
383.827
364.639
371.021
376.326
380.776
384.477
364.261
370.633
375.945
380.399
384.102
364.747
371.149
376.461
380.914
384.615
364.605
371.004
376.321
380.776
384.474
376.137
376.916
375.747
376.54
375.023
375.915
374.094
375.159
373.135
374.391
371.572
372.968
372.336
373.721
370.871
372.206
370.19
371.407
383.284
391.101
397.972
403.967
409.105
383.286
391.169
398.131
404.169
409.382
383.112
391.021
397.932
403.944
409.088
383.123
391.104
398.088
404.169
409.378
382.765
390.848
397.837
403.886
409.045
382.788
390.939
397.999
404.116
409.338
382.298
390.607
397.706
403.809
408.99
382.358
390.716
397.878
404.045
409.288
381.762
390.318
397.549
403.72
408.928
381.894
390.463
397.736
403.961
409.228
380.618
389.602
397.105
403.428
408.693
380.833
389.818
397.349
403.712
409.023
381.184
389.967
397.339
403.587
408.825
381.382
390.161
397.562
403.853
409.141
380.084
389.244
396.87
403.266
408.561
380.252
389.433
397.097
403.536
408.874
379.568
388.892
396.636
403.106
408.433
379.66
389.043
396.83
403.351
408.733
346.757
347.703
349.152
348.051
351.257
350.956
350.704
350.297
350.853
350.339
352.298
351.733
353.433
352.765
352.384
351.804
352.1
351.667
352.214
351.877
348.228
348.599
355.151
357.517
358.129
358.424
356.269
352.194
354.51
352.768
356.898
360.185
354.267
354.549
357.198
355.272
356.114
356.705
350.6
351.48
353.49
353.259
352.276
352.064
353.057
353.818
356.656
356.288
354.811
354.467
348.92
349.274
349.753
350.177
351.12
350.684
353.155
355.264
352.945
345.855
344.861
344.649
345.126
346.287
346.665
345.733
345.534
346.095
347.482
353.547
352.869
352.903
353.671
355.19
355.939
355.29
355.355
356.147
357.679
356.539
355.875
355.923
356.702
358.226
356.847
356.198
356.262
357.054
358.585
354.672
354.001
354.042
354.816
356.338
349.607
348.267
347.741
347.973
348.924
351.749
350.273
349.682
349.888
350.916
350.714
349.59
349.195
349.612
350.925
354.264
352.803
352.26
352.537
353.721
357.593
356.068
355.507
355.78
356.971
352.469
351.575
351.397
351.995
353.42
352.579
351.521
351.192
351.671
353.029
355.255
354.217
353.906
354.403
355.771
353.543
352.72
352.61
353.261
354.716
354.321
353.43
353.255
353.856
355.283
354.992
354.185
354.089
354.753
356.214
348.174
347.043
346.66
347
348.064
349.587
348.611
348.349
348.871
350.246
351.749
350.914
350.792
351.434
352.884
351.564
350.781
350.709
351.391
352.862
350.513
349.658
349.516
350.138
351.575
350.357
349.563
349.48
350.152
351.618
351.412
350.686
350.672
351.401
352.899
352.175
351.449
351.435
352.164
353.661
355.015
354.29
354.276
355.004
356.5
354.672
353.977
353.994
354.747
356.258
353.129
352.357
352.297
352.989
354.466
352.814
352.078
352.053
352.773
354.265
346.582
345.54
345.272
345.708
346.829
347.399
346.486
346.297
346.871
348.272
347.664
346.674
346.387
346.846
348.072
348.406
347.557
347.422
348.046
349.483
349.393
348.581
348.479
349.134
350.59
348.825
347.887
347.656
348.198
349.585
351.5
350.763
350.737
351.456
352.948
353.647
352.952
352.968
353.721
355.231
351.265
350.499
350.444
351.14
352.619
345.91
346.902
345.939
347.016
344.437
345.548
344.426
345.43
345.971
346.05
346.933
346.629
344.432
344.486
345.381
345.02
347.559
349.289
348.488
350.163
347.537
349.08
348.582
350.113
348.477
347.61
347.989
347.45
348.801
349.697
348.126
349.08
347.49
348.509
346.617
347.601
345.852
346.799
349.618
350.634
348.907
350.047
350.88
352.065
351.014
352.698
351.833
353.463
350.796
352.747
351.783
353.549
350.353
352.872
351.004
353.312
352.084
354.439
353.415
355.791
346.595
347.097
346.954
347.486
344.709
344.935
345.073
345.273
348.87
350.079
348.519
349.671
347.573
347.995
348.382
348.658
345.664
345.744
346.412
346.351
349.518
350.606
350.398
351.313
351.019
353.75
352.921
355.836
350.735
353.618
352.563
355.602
351.671
354.311
353.437
356.284
352.605
355.214
354.164
356.964
350.902
351.575
352.711
353.765
350.704
351.287
352.866
353.903
350.403
350.744
353.174
354.053
346.568
344.635
348.554
350.832
354.021
344.609
346.434
348.42
350.797
354.482
344.8
346.907
349.453
352.373
355.603
352.85
353.709
356.823
358.231
352.27
353.135
356.604
358.02
351.411
352.188
356.342
357.784
344.8
345.455
346.748
347.469
348.906
349.615
351.631
352.428
356.715
358.253
344.983
345.741
347.315
348.49
350.077
351.451
353.399
354.945
358.021
359.83
347.926
349.715
348.321
350.142
345.258
345.968
345.609
346.268
351.423
353.778
350.968
353.234
348.674
350.68
349.313
351.416
346.015
346.75
346.59
347.364
351.77
354.349
352.465
355.168
355.262
358.108
360.265
363.653
354.608
357.41
359.391
362.605
355.778
358.69
361.016
364.477
356.275
359.368
361.435
364.828
354.424
355.404
358.159
358.775
353.836
354.906
358.035
358.649
353.027
354.423
357.948
358.725
346.614
348.486
348.692
350.493
350.724
352.36
353.444
355.068
358.331
359.243
347.037
349.118
350.2
352.203
353.086
354.839
356.131
357.497
359.568
360.448
342.269
342.218
343.198
342.757
343.175
343.147
344.132
343.684
341.812
341.564
342.761
342.485
341.792
341.539
342.81
342.517
342.564
341.746
342.303
341.752
341.559
342.364
343.568
344.521
344.478
345.404
343.671
344.718
343.153
344.137
343.453
344.444
341.57
341.911
342.47
342.768
341.471
341.801
342.431
342.668
341.339
341.644
341.999
342.207
342.965
343.081
343.882
343.82
342.117
342.18
342.455
342.411
343.19
343.263
343.541
343.551
341.85
341.789
341.529
341.605
343.002
342.784
343.677
343.28
344.105
343.976
344.808
344.526
342.383
342.111
343.035
342.553
341.582
341.835
341.639
342.049
341.284
341.644
341.495
341.969
342.096
342.222
341.913
342.251
342.713
342.706
342.303
342.565
341.2
341.377
341.595
341.862
341.173
341.373
341.579
341.875
341.188
341.356
341.59
341.859
342.057
343.12
341.48
341.266
341.709
343.164
342.136
341.586
341.389
341.895
343.157
342.121
341.58
341.494
342.014
342.033
343.16
342.61
343.775
341.941
343.008
342.533
343.655
341.809
342.773
342.414
343.454
343.315
343.948
342.288
342.983
341.823
342.596
341.734
342.601
342.349
343.314
343.253
343.797
342.244
342.832
341.78
342.504
341.796
342.7
342.415
343.415
342.252
342.703
342.539
342.856
343.309
343.66
343.664
343.875
342.035
342.598
341.813
342.493
342.97
343.186
343.442
343.655
344.146
344.266
344.669
344.793
342.385
342.876
342.807
343.306
342.057
342.903
342.715
343.767
341.883
342.848
342.544
343.646
342.327
343.11
342.958
344.001
342.691
343.493
343.238
344.26
344.531
345.842
345.466
346.979
344.287
345.698
345.332
346.932
344.023
345.621
345.129
347.001
345.086
346.951
344.172
346.033
343.789
345.617
343.88
345.764
345.009
347.237
344.923
347.061
344.028
346.202
343.843
346.064
344.229
346.513
345.29
347.83
343.388
346.042
349.844
355.549
344.171
346.81
350.64
356.342
343.323
345.97
349.765
355.511
344.056
346.675
350.478
356.173
343.265
345.905
349.531
355.105
343.689
346.28
349.946
355.543
344.484
347.003
350.734
356.336
345.059
347.466
351.136
356.628
343.407
346.005
349.558
355.059
343.795
346.432
349.702
354.652
343.342
345.988
349.392
354.617
343.773
346.449
349.664
354.442
343.662
346.19
349.831
355.427
343.907
346.489
349.797
354.786
344.007
346.436
350.034
355.505
344.106
346.614
349.893
354.803
343.154
345.821
349.452
354.911
343.544
346.227
349.562
354.455
343.197
345.865
349.447
354.871
343.618
346.304
349.612
354.456
343.308
345.977
349.441
354.711
343.704
346.396
349.667
354.442
343.539
346.218
349.51
354.483
343.83
346.528
349.723
354.366
343.868
346.566
349.699
354.263
344.417
347.118
350.322
354.031
345.552
348.271
351.57
355.161
344.409
347.114
350.308
354.004
345.55
348.275
351.574
355.167
344.416
347.129
350.327
354.025
345.564
348.301
351.603
355.179
344.423
347.148
350.315
354.003
345.575
348.329
351.625
355.195
344.45
347.186
350.311
353.98
345.611
348.387
351.674
355.237
344.701
347.411
350.53
354.174
345.757
348.526
351.78
355.35
344.551
347.284
350.414
354.073
345.648
348.431
351.705
355.268
344.905
347.571
350.683
354.314
345.958
348.687
351.913
355.45
345.14
347.74
350.812
354.418
346.219
348.879
352.058
355.566
363.558
369.865
375.23
379.727
383.448
364.039
370.268
375.617
380.109
383.829
363.551
369.865
375.229
379.724
383.444
364.02
370.252
375.597
380.087
383.805
363.51
369.854
375.22
379.713
383.433
363.757
370.001
375.345
379.832
383.55
364.056
370.269
375.599
380.08
383.795
364.105
370.286
375.6
380.073
383.784
363.538
369.873
375.231
379.72
383.439
363.994
370.472
375.848
380.336
384.05
363.577
369.979
375.352
379.845
383.563
364.061
370.568
375.951
380.442
384.156
363.634
369.939
375.284
379.768
383.484
364.134
370.594
375.96
380.444
384.158
363.67
369.952
375.284
379.76
383.472
364.238
370.681
376.035
380.512
384.224
363.61
370.039
375.425
379.925
383.647
364.175
370.718
376.119
380.621
384.342
363.634
370.072
375.459
379.958
383.679
364.189
370.735
376.135
380.636
384.358
363.702
370.164
375.551
380.048
383.768
364.245
370.797
376.195
380.694
384.415
363.931
370.444
375.834
380.329
384.05
364.399
370.951
376.345
380.84
384.561
364.3
370.83
376.218
380.711
384.425
365.058
365.997
365.181
366.14
365.456
366.446
365.886
366.867
366.571
367.436
368.283
369.363
367.522
368.479
368.945
370.112
369.558
370.731
375.917
386.505
395.064
402.026
407.608
375.773
386.497
395.186
402.207
407.877
376.02
386.57
395.106
402.054
407.629
375.907
386.591
395.23
402.265
407.913
376.222
386.694
395.183
402.104
407.666
376.108
386.712
395.305
402.313
407.949
376.539
386.89
395.307
402.189
407.733
376.402
386.89
395.417
402.389
408.009
376.997
387.174
395.494
402.322
407.839
376.782
387.12
395.565
402.493
408.091
378.051
387.831
395.918
402.609
408.051
377.955
387.843
396.032
402.807
408.317
377.522
387.49
395.697
402.462
407.945
377.323
387.439
395.77
402.632
408.192
378.558
388.179
396.15
402.767
408.168
378.55
388.246
396.297
402.983
408.441
379.065
388.539
396.397
402.94
408.302
379.108
388.655
396.566
403.167
408.589
345.476
346.357
345.34
344.423
342.347
343.324
342.313
343.39
343.216
344.334
343.231
344.224
366.156
365.744
364.877
363.556
361.794
359.669
366.319
365.921
365.088
363.841
362.223
360.325
366.973
368.219
366.517
367.709
365.555
366.626
364.064
364.914
362.082
362.728
359.768
360.45
357.366
355.15
353.198
351.542
350.301
349.506
358.291
356.3
354.493
352.97
351.823
351.112
364.622
364.023
364.137
364.968
366.517
364.209
363.608
363.721
364.55
366.099
363.339
362.735
362.846
363.673
365.221
362.014
361.404
361.51
362.334
363.88
360.244
359.627
359.724
360.542
362.086
358.107
357.477
357.562
358.37
359.909
364.785
364.185
364.299
365.129
366.677
364.385
363.783
363.896
364.724
366.272
363.55
362.944
363.054
363.88
365.427
362.297
361.686
361.79
362.613
364.158
360.672
360.053
360.149
360.965
362.508
358.763
358.132
358.215
359.022
360.56
365.44
364.841
364.957
365.787
367.336
366.687
366.089
366.204
367.035
368.583
364.983
364.383
364.497
365.326
366.875
366.176
365.576
365.69
366.519
368.067
364.018
363.414
363.525
364.353
365.901
365.09
364.487
364.598
365.425
366.972
362.522
361.913
362.019
362.843
364.39
363.372
362.763
362.868
363.691
365.237
360.533
359.915
360.013
360.83
362.374
361.178
360.559
360.654
361.47
363.012
358.206
357.575
357.659
358.466
360.006
358.887
358.254
358.334
359.138
360.676
355.788
355.138
355.203
355.995
357.527
353.548
352.871
352.907
353.677
355.197
351.561
350.845
350.843
351.581
353.084
349.858
349.093
349.042
349.74
351.221
348.564
347.752
347.659
348.321
349.78
347.735
346.901
346.791
347.438
348.886
356.714
356.066
356.131
356.924
358.455
354.702
354.03
354.072
354.846
356.368
352.869
352.168
352.181
352.931
354.44
351.317
350.584
350.565
351.29
352.785
350.143
349.382
349.338
350.041
351.525
349.417
348.644
348.589
349.284
350.763
366.112
365.609
364.641
363.203
361.298
358.991
366.273
365.78
364.844
363.478
361.725
359.675
366.929
368.174
366.382
367.569
365.316
366.379
363.704
364.536
361.576
362.203
359.05
359.664
356.477
354.074
352.01
350.416
349.478
349.202
357.488
355.38
353.538
352.112
351.219
350.894
364.579
363.979
364.095
364.926
366.475
364.075
363.475
363.59
364.421
365.971
363.106
362.504
362.618
363.449
364.998
361.664
361.06
361.171
362
363.55
359.755
359.146
359.253
360.079
361.628
357.44
356.824
356.923
357.744
359.291
364.739
364.14
364.254
365.085
366.634
364.246
363.645
363.76
364.59
366.139
363.307
362.706
362.818
363.648
365.197
361.939
361.334
361.444
362.271
363.82
360.18
359.57
359.675
360.5
362.047
358.123
357.504
357.602
358.42
359.966
365.397
364.798
364.914
365.745
367.294
366.642
366.044
366.16
366.991
368.54
364.849
364.25
364.365
365.196
366.746
366.037
365.438
365.554
366.385
367.933
363.782
363.181
363.295
364.126
365.675
364.845
364.245
364.359
365.189
366.738
362.166
361.562
361.674
362.503
364.053
362.999
362.396
362.507
363.336
364.885
360.033
359.425
359.533
360.359
361.908
360.661
360.052
360.159
360.985
362.533
357.5
356.885
356.986
357.807
359.355
358.115
357.499
357.6
358.421
359.968
354.915
354.287
354.374
355.185
356.729
352.495
351.847
351.915
352.712
354.248
350.404
349.727
349.766
350.539
352.062
348.767
348.046
348.041
348.778
350.281
347.77
346.996
346.942
347.636
349.114
347.442
346.624
346.529
347.188
348.644
355.925
355.295
355.38
356.189
357.731
353.801
353.153
353.22
354.015
355.55
351.936
351.263
351.306
352.081
353.605
350.482
349.777
349.788
350.538
352.048
349.556
348.818
348.797
349.52
351.015
349.205
348.441
348.395
349.097
350.58
347.624
348.155
353.887
356.546
356.797
357.372
354.967
346.659
347.506
348.057
349.67
350.816
350.002
352.345
352.542
353.74
346.645
348.044
350.607
350.895
349.476
349.907
351.519
352.01
354.487
354.543
352.381
352.427
347.132
348.065
347.075
348.536
349.181
347.93
351.373
353.686
350.848
345.291
344.354
344.185
344.697
345.888
346.244
345.34
345.169
345.753
347.155
352.313
351.671
351.745
352.547
354.085
354.987
354.362
354.453
355.267
356.812
355.236
354.608
354.697
355.509
357.052
355.816
355.193
355.287
356.103
357.648
353.4
352.767
352.85
353.658
355.2
344.577
343.784
343.697
344.288
345.477
345.468
344.719
344.68
345.315
346.582
346.324
345.547
345.488
346.174
347.641
347.742
347.044
347.055
347.749
349.165
349.191
348.499
348.524
349.284
350.801
348.331
347.605
347.597
348.328
349.825
350.744
350.073
350.118
350.896
352.421
350.931
350.25
350.285
351.054
352.575
352.147
351.484
351.537
352.32
353.849
344.558
343.749
343.653
344.24
345.452
346.339
345.575
345.529
346.226
347.704
348.989
348.302
348.332
349.097
350.616
349.287
348.61
348.649
349.421
350.945
347.835
347.124
347.131
347.876
349.384
348.28
347.582
347.6
348.355
349.869
349.917
349.246
349.291
350.068
351.595
350.42
349.761
349.818
350.606
352.138
352.909
352.263
352.332
353.129
354.665
352.971
352.332
352.409
353.212
354.752
350.788
350.126
350.18
350.964
352.494
350.84
350.184
350.244
351.034
352.567
344.909
344.031
343.888
344.431
345.637
346.248
345.405
345.288
345.921
347.36
345.147
344.347
344.237
344.847
346.162
346.833
346.065
346.014
346.709
348.187
347.527
346.803
346.795
347.527
349.028
346.211
345.433
345.367
346.048
347.516
349.774
349.104
349.15
349.929
351.456
352.111
351.467
351.54
352.34
353.878
349.24
348.562
348.6
349.372
350.896
352.336
350.824
350.069
350.051
350.749
352.379
345.579
345.656
344.108
344.069
345.76
345.953
344.192
344.351
347.286
349.165
347.297
348.962
347.477
347.417
348.655
345.501
345.605
344.035
343.969
345.743
345.964
344.159
344.374
347.335
349.303
347.361
349.087
347.569
347.491
348.798
345.526
345.661
344.054
343.955
345.844
346.113
344.232
344.498
347.428
349.84
347.484
349.586
347.74
347.686
349.266
346.043
346.201
344.568
344.443
346.438
346.797
344.79
345.129
348.072
350.659
348.135
350.412
348.422
348.401
350.052
347.002
347.173
345.554
345.414
347.446
347.892
345.801
346.179
349.056
351.515
349.127
351.338
349.423
349.488
351.003
348.718
348.892
347.308
347.161
349.159
349.575
347.568
347.948
350.645
352.861
350.706
352.711
350.984
351.036
352.384
341.996
341.992
342.88
342.868
342.036
342.106
342.936
343.054
341.479
341.199
341.502
341.23
341.53
341.623
341.345
341.898
341.923
342.803
342.763
342.011
342.127
342.904
343.058
341.362
341.207
341.424
341.278
341.523
341.665
341.427
341.885
341.95
342.816
342.74
342.094
342.267
342.973
343.195
341.455
341.571
341.555
341.641
341.729
341.896
341.789
342.387
342.483
343.329
343.225
342.679
342.93
343.532
343.808
342.059
342.404
342.187
342.48
342.431
342.659
342.628
343.389
343.502
344.329
344.209
343.747
344.078
344.556
344.876
343.15
343.597
343.296
343.664
343.573
343.854
343.787
345.182
345.303
346.105
345.977
345.553
345.863
346.347
346.675
344.93
345.188
345.072
345.272
345.32
345.565
345.402
358.031
357.641
356.894
356.283
355.57
354.93
354.067
353.513
354.764
354.095
355.982
355.329
356.998
356.408
357.927
357.496
354.785
353.795
353.706
352.388
352.899
351.687
351.856
350.335
358.886
360.46
358.495
360.015
357.759
359.292
357.125
358.635
355.343
356.521
354.15
355.648
357.928
356.765
352.474
350.595
351.142
349.763
350.689
349.029
349.175
347.948
354.154
352.262
352.885
351.462
355.641
353.82
362.319
363.718
361.657
363.183
361.147
362.882
360.292
361.975
359.51
361.771
357.916
360.148
356.632
358.89
355.048
357.374
353.632
353.132
351.972
351.629
351.082
350.555
349.658
349.149
354.299
354.355
356.128
355.882
350.592
350.427
349.363
349.465
348.424
348.022
347.306
347.108
352.805
353.122
351.477
352.147
356.688
359.309
357.201
360.016
358.531
361.117
358.717
361.573
355.149
357.763
355.969
358.774
353.755
356.375
355.006
357.794
365.252
367.863
365.718
368.191
364.17
366.691
365.038
367.446
362.519
364.545
363.981
366.003
355.874
352.935
358.606
360.641
363.147
353.623
356.768
360.118
362.231
364.765
352.358
355.1
357.771
360.4
363.232
370.281
371.863
371.151
372.447
368.966
370.768
370.235
371.636
366.7
368.737
368.681
370.344
354.707
356.599
358.133
360.518
361.331
363.713
363.774
366.03
367.113
369.206
353.153
354.652
356.256
358.56
359.149
361.691
362.1
364.762
365.992
368.672
354.138
356.636
352.393
354.628
351.049
352.158
349.415
350.263
355.605
358.385
357.274
360.237
350.981
353.2
350.067
352.217
348.166
349.004
347.293
348.083
354.157
356.962
353.244
356.001
359.353
362.536
364.101
367.741
360.713
364.081
365.05
368.653
358.162
361.236
363.253
366.83
357.08
360.208
362.148
365.564
373.139
374.747
376.816
372.999
374.372
376.363
372.265
374.011
376.166
372.309
373.76
375.87
370.567
372.515
374.817
371.311
372.986
375.302
358.982
361.725
364.707
363.264
365.852
368.658
366.291
368.744
371.403
368.281
370.563
373.179
370.538
372.529
375.19
356.892
360.002
363.399
361.91
365.215
368.683
365.156
368.307
371.613
367.799
370.619
373.76
370.608
372.965
376.008
349.633
348.626
348.793
347.51
351.095
349.883
350.149
348.654
350.203
348.9
349.964
348.786
349.467
348.348
349.048
348.044
347.613
348.42
346.912
347.893
347.767
347.107
346.595
345.566
347.589
346.484
347.035
345.946
346.151
345.21
346.683
345.651
347.532
346.37
347.796
346.813
347.101
345.992
347.141
346.222
346.599
345.488
346.095
345.222
345.718
345.102
344.882
344.551
347.55
346.773
346.43
345.622
349.031
348.372
347.779
347.101
345.582
344.639
346.586
345.654
345.418
344.686
344.466
343.914
346.666
346.071
345.639
345.223
344.677
343.807
343.793
343.117
344.923
344.341
344.129
344.033
345.732
344.973
345.008
344.756
344.183
343.801
343.401
343.445
343.409
343.242
342.8
342.965
347.942
348.917
346.609
347.523
347.713
348.732
346.41
347.351
347.375
348.265
346.098
346.92
348.567
350.424
347.498
346.589
345.73
351.066
349.252
348.374
347.468
346.452
349.84
347.997
346.714
345.926
345.504
350.407
352.392
348.983
350.879
350.094
352.003
348.654
350.456
349.473
351.288
348.042
349.702
351.938
353.579
349.976
351.629
348.992
350.647
348.172
349.836
347.183
348.735
350.411
351.469
348.512
349.573
347.259
348.428
346.547
347.906
346.191
347.741
346.79
347.415
345.615
345.994
348.472
349.066
347.119
347.417
344.765
345.417
345.79
346.66
344.755
344.986
344.029
344.234
346.123
346.285
345.316
345.439
343.982
344.5
343.331
343.829
344.427
345.399
344.656
345.941
345.334
346.519
345.341
346.787
343.727
344.549
344.104
345.256
343.171
343.975
343.614
344.658
355.068
357.788
360.433
354.104
357.156
359.804
354.527
357.281
359.985
353.533
356.592
359.352
353.661
356.366
359.112
352.616
355.812
358.755
355.764
358.461
361.431
353.812
356.551
359.537
352.83
355.659
358.673
352.116
354.937
357.87
351.639
354.989
358.191
353.312
356.278
359.645
351.441
354.414
357.764
350.466
353.561
356.983
350.211
353.427
356.865
350.731
354.241
357.761
346.296
347.872
351.012
356.298
346.843
348.505
351.732
357.048
346.051
347.692
350.852
356.189
346.406
348.167
351.432
356.778
345.741
347.478
350.533
355.726
345.646
347.53
350.757
356.061
345.792
347.842
351.279
356.687
345.532
347.77
351.334
356.758
345.063
347.076
350.266
355.527
345.165
347.334
350.317
355.088
345.526
347.391
350.307
355.205
345.677
347.689
350.484
354.992
344.712
346.872
350.288
355.739
344.74
347.041
350.183
355.072
344.37
346.672
350.193
355.613
344.387
346.801
350.025
354.903
346.379
347.832
350.727
355.733
347.114
348.42
350.948
355.365
346.301
347.807
350.674
355.646
347.069
348.436
350.957
355.33
346.193
347.795
350.592
355.43
346.892
348.384
350.923
355.251
346.149
347.88
350.573
355.152
346.729
348.356
350.881
355.104
346.213
348.073
350.677
354.903
348.249
349.433
351.772
355.072
349.535
350.645
353.068
356.277
348.095
349.361
351.722
355.016
349.373
350.579
353.037
356.26
347.811
349.226
351.649
354.967
349.085
350.454
352.979
356.211
347.412
349.026
351.509
354.849
348.705
350.277
352.884
356.144
346.921
348.77
351.344
354.726
348.278
350.079
352.785
356.084
346.067
348.315
351.149
354.653
347.279
349.53
352.46
355.879
346.472
348.538
351.25
354.696
347.759
349.799
352.618
355.972
345.726
348.12
351.065
354.62
346.869
349.296
352.329
355.776
345.414
347.923
350.941
354.522
346.518
349.08
352.195
355.674
363.979
370.11
375.375
379.818
383.516
364.45
370.513
375.766
380.207
383.904
363.931
370.087
375.36
379.806
383.505
364.365
370.454
375.716
380.161
383.86
363.845
370.049
375.335
379.785
383.486
364.045
370.169
375.444
379.894
383.596
364.256
370.386
375.669
380.123
383.827
364.18
370.33
375.626
380.088
383.795
363.798
370.024
375.32
379.776
383.48
364.224
370.604
375.925
380.384
384.086
363.884
370.156
375.456
379.91
383.612
364.336
370.725
376.043
380.5
384.2
363.813
370.042
375.345
379.806
383.512
364.29
370.683
376.012
380.476
384.182
363.731
369.988
375.305
379.772
383.481
364.292
370.712
376.052
380.522
384.231
364.045
370.286
375.568
380.013
383.711
364.621
370.967
376.261
380.707
384.404
364.046
370.31
375.598
380.046
383.745
364.622
370.982
376.281
380.728
384.426
364.072
370.377
375.675
380.126
383.827
364.639
371.021
376.326
380.776
384.476
364.261
370.633
375.944
380.398
384.101
364.747
371.149
376.46
380.913
384.615
364.605
371.003
376.32
380.775
384.473
376.159
376.929
375.747
376.541
375.024
375.915
374.094
375.16
373.135
374.391
371.573
372.969
372.337
373.722
370.873
372.208
370.192
371.409
383.296
391.108
397.978
403.971
409.109
383.29
391.169
398.129
404.167
409.379
383.113
391.021
397.932
403.943
409.088
383.125
391.106
398.089
404.171
409.379
382.765
390.848
397.838
403.887
409.045
382.789
390.939
397.999
404.116
409.338
382.298
390.607
397.706
403.809
408.99
382.358
390.717
397.878
404.045
409.288
381.762
390.318
397.549
403.72
408.928
381.895
390.463
397.736
403.961
409.228
380.62
389.603
397.106
403.43
408.695
380.834
389.819
397.351