/*--------------------------------*- C++ -*----------------------------------*\
  =========                 |
  \\      /  F ield         | OpenFOAM: The Open Source CFD Toolbox
   \\    /   O peration     | Website:  https://openfoam.org
    \\  /    A nd           | Version:  13
     \\/     M anipulation  |
\*---------------------------------------------------------------------------*/
FoamFile
{
    format      ascii;
    class       volScalarField;
    location    "79.831886";
    object      T;
}
// * * * * * * * * * * * * * * * * * * * * * * * * * * * * * * * * * * * * * //

dimensions      [0 0 0 1 0 0 0];

internalField   nonuniform List<scalar> 
5712
(
879.335
879.013
878.477
877.984
877.198
876.699
875.44
875.034
875.808
875.331
877.19
876.709
878.203
877.749
878.97
878.625
876.789
876.136
875.936
875.039
874.649
873.815
873.866
872.811
880.444
882.279
880.101
881.818
879.631
881.387
879.098
880.759
877.786
878.766
876.876
878.116
880.29
879.246
874.886
873.333
874.012
872.86
872.938
871.63
871.906
870.919
876.729
875.111
875.781
874.561
878.208
876.639
884.386
885.657
883.516
884.84
883.484
885.08
882.46
883.929
882.17
884.324
880.584
882.585
879.36
881.34
877.964
879.975
876.28
875.987
874.927
874.783
873.44
873.071
872.366
871.998
877.408
877.772
879
879.056
873.788
873.788
872.76
872.964
871.401
871.1
870.497
870.336
876.11
876.712
874.963
875.858
879.854
882.264
880.759
883.47
881.571
884.042
882.104
884.922
878.441
880.784
879.658
882.314
877.195
879.501
878.793
881.406
887.388
890.154
887.848
890.591
886.548
889.123
887.388
890.004
885.132
887.111
886.606
888.76
878.198
874.835
881.261
883.572
886.103
875.321
878.878
882.535
885.003
887.735
874.427
877.59
880.667
883.596
886.49
892.714
893.977
894.109
895.228
891.414
892.867
893.229
894.438
889.154
890.783
891.722
893.163
876.111
877.422
880.002
881.79
883.6
885.456
886.474
888.311
890.312
892.154
875.007
876.063
878.556
880.409
881.899
884.014
885.244
887.533
889.493
891.91
876.892
878.974
875.406
877.253
873.41
874.014
872.083
872.427
878.951
881.412
880.404
883.018
874.149
876.002
873.343
875.113
871.021
871.35
870.263
870.514
877.632
880.14
876.816
879.267
883.009
885.997
888.067
891.697
884.182
887.318
888.85
892.413
881.931
884.825
887.319
890.891
880.916
883.839
886.249
889.63
894.385
894.974
896.065
894.625
894.886
895.885
893.55
894.271
895.427
893.993
894.308
895.383
891.829
892.77
894.058
893.034
893.5
894.706
879.039
880.896
882.894
883.705
885.341
887.121
887.234
888.654
890.234
889.763
890.962
892.477
892.283
892.924
894.334
877.557
879.638
881.898
882.895
885.081
887.332
886.544
888.485
890.515
889.504
890.976
892.781
892.267
893.093
894.72
870.863
870.191
870.279
869.418
872.569
871.739
871.895
870.871
870.561
869.222
870.398
869.154
870.16
868.968
869.875
868.761
868.933
869.491
868.563
869.221
868.706
868.249
868.761
867.999
870.071
869.22
868.555
867.827
868.03
867.342
867.98
867.27
867.87
866.686
868.1
866.993
867.689
866.473
867.749
866.632
867.511
866.191
867.202
866.006
866.969
865.926
866.367
865.518
869.31
868.727
868.555
867.905
871.094
870.587
870.207
869.658
867.409
866.64
868.068
867.358
867.822
867.2
867.098
866.582
869.373
868.865
868.57
868.174
866.767
866.019
866.106
865.473
866.451
865.431
865.817
865.226
866.98
865.877
866.442
865.747
865.931
865.037
865.273
864.778
865.358
864.617
864.797
864.392
867.928
868.515
866.809
867.418
867.901
868.522
866.721
867.353
867.858
868.418
866.58
867.146
869.869
871.991
868.549
867.507
866.405
872.435
870.333
869.104
868.078
866.905
871.576
869.509
868.037
867.053
866.268
869.53
870.931
868.443
869.801
869.442
870.779
868.274
869.577
869.22
870.483
867.949
869.161
873.01
874.096
870.78
871.881
869.518
870.645
868.551
869.696
867.446
868.587
871.928
872.566
869.81
870.449
868.38
869.138
867.469
868.397
866.787
867.935
868.596
868.821
867.755
867.749
870.519
870.682
869.508
869.375
866.638
866.923
867.36
867.838
867.115
866.933
866.506
866.267
868.729
868.428
868.043
867.671
866.063
866.194
865.521
865.601
865.963
866.557
865.678
866.607
866.62
867.382
866.189
867.244
865.431
865.882
865.242
866.054
864.986
865.382
864.852
865.562
872.842
874.751
876.565
872.147
874.301
876.121
872.572
874.504
876.36
871.825
873.993
875.891
872.165
874.061
875.946
871.302
873.572
875.597
875.567
877.41
879.419
873.381
875.286
877.333
872.166
874.153
876.233
871.306
873.286
875.298
870.735
873.12
875.326
873.736
875.732
878.008
871.673
873.703
875.983
870.535
872.681
875.025
870.036
872.292
874.654
870.18
872.677
875.102
866.218
867.055
869.212
873.176
866.58
867.476
869.707
873.707
866.063
866.933
869.099
873.102
866.299
867.253
869.505
873.519
865.858
866.779
868.856
872.74
865.779
866.807
869.022
872.989
865.853
866.994
869.365
873.43
865.636
866.907
869.374
873.465
865.385
866.481
868.647
872.578
865.455
866.631
868.618
872.155
865.719
866.706
868.667
872.315
865.828
866.891
868.739
872.072
865.118
866.32
868.655
872.73
865.132
866.407
868.509
872.131
864.845
866.153
868.567
872.621
864.851
866.213
868.376
871.983
866.277
867.025
868.99
872.721
866.776
867.415
869.096
872.358
866.233
867.006
868.945
872.654
866.755
867.423
869.094
872.328
866.171
866.993
868.871
872.472
866.649
867.387
869.063
872.258
866.153
867.041
868.828
872.218
866.551
867.364
869.021
872.128
866.203
867.162
868.87
871.977
867.553
868.095
869.613
871.952
868.429
868.91
870.466
872.671
867.456
868.043
869.572
871.907
868.327
868.861
870.437
872.651
867.28
867.951
869.518
871.869
868.15
868.778
870.394
872.612
867.025
867.813
869.415
871.779
867.91
868.656
870.322
872.559
866.698
867.632
869.292
871.68
867.631
868.517
870.246
872.508
866.078
867.285
869.126
871.604
866.919
868.111
869.993
872.338
866.382
867.46
869.214
871.649
867.272
868.315
870.12
872.42
865.807
867.124
869.047
871.569
866.596
867.92
869.878
872.247
865.549
866.957
868.935
871.478
866.302
867.735
869.758
872.151
879.233
884.139
888.344
891.797
894.494
879.547
884.399
888.593
892.043
894.74
879.199
884.121
888.332
891.788
894.487
879.493
884.364
888.566
892.02
894.718
879.131
884.091
888.313
891.773
894.473
879.268
884.169
888.383
891.842
894.542
879.396
884.303
888.522
891.985
894.687
879.327
884.251
888.483
891.954
894.659
879.089
884.068
888.299
891.763
894.465
879.35
884.443
888.691
892.157
894.858
879.146
884.158
888.39
891.852
894.553
879.429
884.528
888.772
892.235
894.935
879.088
884.071
888.308
891.776
894.48
879.384
884.487
888.741
892.21
894.913
879.015
884.021
888.27
891.746
894.453
879.369
884.495
888.759
892.234
894.939
879.271
884.258
888.475
891.928
894.625
879.646
884.709
888.931
892.383
895.076
879.264
884.267
888.489
891.944
894.642
879.637
884.71
888.936
892.389
895.083
879.273
884.308
888.537
891.996
894.694
879.643
884.733
888.965
892.42
895.115
879.386
884.472
888.71
892.171
894.869
879.708
884.813
889.05
892.507
895.203
879.61
884.713
888.954
892.415
895.113
900.058
900.87
899.698
900.527
899.043
899.963
898.213
899.288
897.39
898.632
896.098
897.533
896.758
898.161
895.446
896.831
894.769
896.03
908.958
918.808
927.196
933.832
938.483
908.822
918.741
927.225
933.904
938.633
908.796
918.722
927.142
933.792
938.449
908.677
918.68
927.171
933.891
938.609
908.47
918.539
927.021
933.702
938.371
908.362
918.504
927.056
933.805
938.535
908.031
918.278
926.845
933.57
938.258
907.96
918.265
926.896
933.685
938.433
907.521
917.947
926.616
933.397
938.109
907.528
917.984
926.7
933.536
938.303
906.42
917.132
926.003
932.908
937.674
906.537
917.256
926.155
933.095
937.9
906.971
917.55
926.324
933.169
937.91
907.06
917.651
926.459
933.345
938.131
905.867
916.702
925.666
932.631
937.423
905.947
916.796
925.792
932.793
937.624
905.302
916.256
925.314
932.341
937.163
905.301
916.303
925.392
932.463
937.337
868.89
870.094
871.164
869.784
871.656
871.461
871.392
871.129
871.785
871.426
873.411
872.991
874.286
873.81
873.065
872.666
872.594
872.317
872.51
872.295
869.827
869.528
873.215
874.7
875.189
875.32
873.955
873.226
874.937
872.951
876.432
878.688
873.367
873.987
875.732
873.844
874.61
874.764
871.817
871.712
872.667
872.338
871.897
871.545
871.961
872.509
874.449
874.079
873.363
873.001
870.405
869.958
870.747
870.39
870.945
871.063
872.086
873.377
872.058
867.606
866.484
866.02
866.102
866.747
867.876
866.94
866.541
866.721
867.547
872.085
871.564
871.519
871.98
872.969
873.608
873.129
873.127
873.621
874.626
874.082
873.583
873.56
874.035
875.03
874.23
873.753
873.751
874.244
875.248
872.837
872.328
872.295
872.763
873.756
870.79
869.332
868.578
868.445
868.914
872.339
870.761
869.959
869.821
870.364
871.214
870.112
869.54
869.596
870.36
874.023
872.503
871.762
871.694
872.361
876.331
874.769
874.014
873.939
874.609
871.985
871.191
870.885
871.143
872.023
872.381
871.381
870.897
871.025
871.834
874.173
873.207
872.751
872.9
873.721
872.554
871.851
871.628
871.949
872.862
873.241
872.455
872.157
872.422
873.304
873.497
872.816
872.613
872.948
873.868
869.591
868.352
867.737
867.7
868.261
870.178
869.253
868.83
868.993
869.817
871.355
870.632
870.39
870.696
871.602
871.085
870.425
870.243
870.596
871.527
870.547
869.789
869.516
869.797
870.688
870.269
869.587
869.386
869.723
870.646
870.77
870.18
870.068
870.475
871.436
871.324
870.74
870.631
871.041
872.004
873.273
872.695
872.591
873.003
873.965
872.935
872.396
872.331
872.774
873.753
872.131
871.492
871.329
871.697
872.635
871.807
871.211
871.09
871.491
872.448
868.248
867.095
866.589
866.637
867.245
868.407
867.52
867.151
867.355
868.198
868.957
867.928
867.437
867.52
868.218
869.004
868.228
867.943
868.214
869.1
869.632
868.918
868.686
868.999
869.909
869.562
868.675
868.28
868.463
869.297
870.884
870.281
870.155
870.552
871.507
872.23
871.687
871.62
872.062
873.041
870.822
870.182
870.02
870.388
871.327
869.624
870.308
869.675
870.432
868.015
868.805
867.988
868.689
869.732
869.817
870.455
870.3
868.033
868.071
868.755
868.533
871.329
873.009
871.945
873.56
871.334
872.855
872.056
873.549
872.077
871.441
871.712
871.297
872.622
873.263
871.343
872.094
870.991
871.82
869.697
870.487
869.213
869.984
872.937
873.747
872.434
873.368
874.161
875.143
874.559
875.914
875.037
876.328
874.444
876.055
875.062
876.489
874.16
876.342
874.576
876.515
875.407
877.392
876.542
878.57
870.342
870.774
870.677
871.17
868.222
868.365
868.58
868.705
872.702
873.945
872.401
873.529
871.221
871.652
871.923
872.252
869.106
869.144
869.751
869.682
873.257
874.449
874.025
875.105
874.82
877.234
876.839
879.576
874.62
877.221
876.483
879.368
875.357
877.668
877.331
879.991
876.174
878.456
878.017
880.631
874.669
875.459
876.177
877.425
874.542
875.192
876.397
877.595
874.309
874.659
876.793
877.784
870.262
868.074
872.419
874.746
877.731
868.005
870.085
872.24
874.691
878.251
868.189
870.544
873.273
876.275
879.396
876.751
877.341
880.723
881.896
876.148
876.741
880.483
881.656
875.255
875.746
880.193
881.374
868.055
868.38
870.276
870.665
872.612
873.007
875.446
875.95
880.566
881.831
868.203
868.54
870.798
871.588
873.769
874.773
877.236
878.442
881.943
883.481
871.41
872.772
871.763
873.158
868.453
868.595
868.751
868.816
875.123
877.127
874.685
876.584
872.064
873.663
872.658
874.364
869.108
869.259
869.633
869.839
875.433
877.681
876.096
878.479
879.167
881.766
884.348
887.646
878.496
881.015
883.417
886.5
879.678
882.371
885.136
888.538
880.155
883.028
885.553
888.895
877.574
878.091
881.148
881.234
876.992
877.565
880.997
881.035
876.134
876.96
880.847
880.931
869.043
870.211
871.386
872.492
873.642
874.605
876.47
877.379
881.127
881.152
869.208
870.469
872.672
873.841
875.736
876.622
878.843
879.259
882.072
881.868
865.374
865.322
866.073
865.77
866.55
866.501
867.287
866.969
864.561
863.982
865.227
864.624
864.578
864.039
865.298
864.716
865.172
864.563
865.073
864.622
864.158
864.737
866.416
867.184
867.609
868.362
866.019
866.891
865.738
866.516
865.559
866.356
863.642
863.439
864.266
864.028
863.644
863.386
864.299
863.983
863.679
863.32
864.167
863.734
864.905
864.39
865.611
864.959
865.115
865.07
865.435
865.293
866.454
866.432
866.797
866.715
864.535
864.343
864.244
864.166
865.906
865.63
866.468
866.055
867.294
867.106
867.892
867.583
864.98
864.631
865.511
865.006
863.901
863.486
863.811
863.608
863.64
863.319
863.669
863.514
864.322
863.804
864.056
863.793
864.817
864.196
864.387
864.06
863.371
863.48
863.211
863.39
863.421
863.54
863.217
863.413
863.535
863.634
863.254
863.43
864.997
866.312
864.146
863.59
863.345
866.326
865.065
864.232
863.681
863.47
866.288
864.982
864.115
863.644
863.524
863.928
864.708
863.923
864.761
863.921
864.65
863.882
864.685
863.925
864.575
863.819
864.556
866.338
866.654
865.079
865.465
864.321
864.801
863.857
864.415
863.769
864.439
866.218
866.355
864.936
865.127
864.146
864.477
863.77
864.27
863.782
864.452
864.893
864.858
865.152
864.977
866.234
866.081
866.548
866.225
864.335
864.431
864.126
864.332
865.568
865.287
865.992
865.728
866.998
866.574
867.471
867.067
864.684
864.706
865.062
865.112
863.953
864.336
864.022
864.678
863.796
864.269
863.871
864.571
864.214
864.558
864.244
864.907
864.565
864.931
864.522
865.192
865.662
866.559
865.983
867.039
865.539
866.502
865.886
867.004
865.425
866.488
865.737
867.032
867.312
868.484
866.189
867.386
865.563
866.768
865.253
866.493
865.626
867.152
866.896
868.245
865.759
867.167
865.265
866.736
865.244
866.778
865.767
867.494
863.987
865.562
868.199
872.492
864.531
866.101
868.769
873.07
863.949
865.517
868.145
872.47
864.469
866.023
868.667
872.954
863.919
865.476
867.975
872.161
864.241
865.77
868.308
872.506
864.82
866.296
868.884
873.102
865.261
866.653
869.199
873.344
864.057
865.581
868.02
872.14
864.323
865.861
868.069
871.748
863.979
865.533
867.859
871.768
864.274
865.841
868.01
871.558
864.271
865.745
868.249
872.438
864.438
865.933
868.164
871.863
864.553
865.954
868.426
872.519
864.616
866.052
868.258
871.89
863.811
865.384
867.878
871.967
864.062
865.629
867.885
871.519
863.843
865.414
867.87
871.934
864.114
865.683
867.919
871.519
863.925
865.493
867.859
871.804
864.179
865.752
867.961
871.508
864.087
865.658
867.89
871.596
864.271
865.849
868.001
871.442
864.316
865.896
868.004
871.382
864.648
866.212
868.342
870.99
865.417
866.983
869.154
871.639
864.644
866.213
868.336
870.974
865.416
866.989
869.16
871.645
864.653
866.23
868.357
870.998
865.427
867.013
869.187
871.66
864.666
866.255
868.36
870.994
865.441
867.042
869.212
871.681
864.699
866.3
868.375
870.987
865.475
867.096
869.259
871.722
864.927
866.506
868.57
871.156
865.627
867.244
869.381
871.843
864.791
866.391
868.466
871.068
865.52
867.15
869.303
871.763
865.107
866.648
868.702
871.282
865.81
867.39
869.502
871.941
865.314
866.798
868.819
871.38
866.043
867.56
869.633
872.049
878.827
883.889
888.187
891.691
894.412
879.158
884.159
888.442
891.942
894.66
878.827
883.893
888.19
891.692
894.412
879.153
884.154
888.434
891.931
894.648
878.803
883.891
888.188
891.689
894.407
878.986
883.995
888.273
891.769
894.485
879.199
884.181
888.446
891.934
894.647
879.252
884.205
888.454
891.934
894.644
878.835
883.913
888.202
891.698
894.414
879.125
884.306
888.605
892.099
894.813
878.846
883.976
888.277
891.776
894.493
879.16
884.365
888.67
892.167
894.881
878.912
883.963
888.24
891.731
894.444
879.23
884.394
888.683
892.171
894.883
878.954
883.983
888.247
891.73
894.441
879.315
884.462
888.739
892.22
894.929
878.844
883.999
888.313
891.82
894.54
879.205
884.445
888.767
892.272
894.99
878.863
884.024
888.337
891.843
894.562
879.217
884.458
888.779
892.284
895.001
878.912
884.09
888.402
891.904
894.623
879.259
884.504
888.822
892.324
895.04
879.064
884.278
888.59
892.09
894.806
879.369
884.61
888.923
892.422
895.136
879.312
884.535
888.843
892.34
895.054
889.179
890.109
889.306
890.257
889.597
890.574
890.062
891.02
890.811
891.642
892.719
893.801
891.866
892.807
893.451
894.642
894.112
895.319
900.997
913.095
922.919
930.423
935.496
900.737
912.961
922.913
930.474
935.635
901.115
913.179
922.98
930.47
935.534
900.891
913.081
922.979
930.553
935.687
901.353
913.345
923.098
930.561
935.612
901.123
913.239
923.091
930.638
935.76
901.725
913.601
923.283
930.705
935.737
901.466
913.472
923.257
930.767
935.872
902.255
913.96
923.546
930.914
935.92
901.908
913.768
923.472
930.937
936.021
903.524
914.849
924.208
931.441
936.374
903.3
914.718
924.168
931.479
936.474
902.88
914.38
923.856
931.161
936.135
902.546
914.184
923.775
931.174
936.221
904.134
915.32
924.573
931.734
936.627
904.016
915.259
924.578
931.801
936.747
904.729
915.796
924.949
932.041
936.896
904.672
915.798
924.991
932.134
937.045
867.902
869.038
868.203
867.017
865.407
866.088
865.392
866.166
866.569
867.372
866.569
867.263
880.207
879.987
879.448
878.595
877.447
876.065
880.302
880.093
879.58
878.78
877.731
876.5
880.762
881.596
880.514
881.313
879.909
880.628
878.941
879.512
877.646
878.085
876.142
876.614
874.584
873.183
871.982
870.997
870.265
869.737
875.189
873.918
872.779
871.825
871.09
870.581
879.183
878.78
878.851
879.398
880.425
878.962
878.555
878.624
879.17
880.197
878.418
878.007
878.071
878.615
879.64
877.558
877.139
877.196
877.734
878.758
876.398
875.966
876.011
876.54
877.561
874.998
874.547
874.573
875.087
876.102
879.278
878.873
878.943
879.49
880.516
879.066
878.659
878.726
879.271
880.296
878.548
878.136
878.198
878.739
879.764
877.741
877.32
877.374
877.91
878.932
876.68
876.246
876.288
876.814
877.833
875.432
874.979
875.002
875.514
876.527
879.74
879.338
879.409
879.957
880.983
880.577
880.175
880.247
880.795
881.819
879.49
879.085
879.155
879.701
880.727
880.292
879.888
879.957
880.503
881.527
878.88
878.471
878.536
879.079
880.104
879.602
879.193
879.258
879.8
880.823
877.904
877.486
877.544
878.082
879.105
878.477
878.058
878.115
878.651
879.673
876.597
876.166
876.21
876.739
877.759
877.035
876.602
876.644
877.169
878.187
875.074
874.623
874.648
875.162
876.176
875.544
875.089
875.11
875.62
876.632
873.491
873.01
873.007
873.499
874.504
872.052
871.531
871.486
871.946
872.935
870.799
870.219
870.118
870.534
871.5
869.74
869.084
868.91
869.271
870.207
868.92
868.187
867.947
868.257
869.165
868.333
867.557
867.284
867.569
868.462
874.097
873.617
873.614
874.106
875.11
872.794
872.279
872.24
872.705
873.695
871.614
871.054
870.971
871.401
872.375
870.613
870.002
869.87
870.263
871.217
869.831
869.175
869.002
869.364
870.302
869.295
868.614
868.422
868.768
869.698
880.104
879.679
878.934
877.873
876.513
874.913
880.2
879.787
879.07
878.068
876.822
875.408
880.655
881.484
880.193
880.977
879.373
880.064
878.185
878.714
876.666
877.054
874.911
875.29
873.228
871.691
870.467
869.652
869.321
869.396
873.95
872.604
871.502
870.735
870.349
870.317
879.081
878.678
878.749
879.298
880.325
878.654
878.25
878.32
878.868
879.896
877.905
877.497
877.565
878.111
879.14
876.838
876.424
876.487
877.03
878.059
875.468
875.045
875.099
875.637
876.664
873.854
873.416
873.457
873.985
875.009
879.176
878.772
878.842
879.39
880.416
878.761
878.355
878.424
878.971
879.998
878.04
877.631
877.697
878.242
879.269
877.032
876.616
876.677
877.218
878.245
875.776
875.351
875.402
875.937
876.962
874.348
873.907
873.944
874.469
875.491
879.634
879.232
879.304
879.852
880.879
880.465
880.064
880.137
880.684
881.709
879.17
878.767
878.838
879.386
880.413
879.956
879.553
879.625
880.172
881.198
878.346
877.939
878.008
878.554
879.582
879.039
878.633
878.701
879.248
880.274
877.151
876.738
876.802
877.345
878.373
877.681
877.268
877.331
877.874
878.9
875.623
875.201
875.255
875.794
876.821
876.011
875.587
875.641
876.178
877.203
873.854
873.417
873.459
873.988
875.013
874.233
873.795
873.836
874.363
875.387
872.149
871.689
871.707
872.219
873.237
870.581
870.088
870.074
870.561
871.567
869.312
868.769
868.707
869.157
870.144
868.427
867.812
867.683
868.08
869.039
868.005
867.307
867.104
867.444
868.371
868.003
867.241
866.983
867.279
868.18
872.869
872.407
872.423
872.932
873.948
871.496
871.003
870.989
871.476
872.48
870.357
869.823
869.769
870.224
871.213
869.543
868.959
868.857
869.275
870.244
869.107
868.471
868.321
868.702
869.651
869.038
868.365
868.181
868.535
869.469
869.229
869.063
871.499
873.227
873.35
873.744
872.16
868.246
868.748
868.49
869.918
869.766
869.518
870.632
870.852
871.514
868.134
868.297
869.556
869.675
868.924
869.132
870.073
870.312
871.886
871.883
870.579
870.567
868.653
868.68
868.124
868.606
868.795
868.267
869.954
871.345
869.645
867.047
865.979
865.555
865.67
866.346
867.434
866.524
866.151
866.352
867.192
870.396
869.911
869.904
870.397
871.407
872.152
871.696
871.72
872.236
873.255
872.268
871.805
871.82
872.329
873.345
872.672
872.221
872.247
872.765
873.785
871.068
870.596
870.602
871.105
872.119
866.326
865.365
864.992
865.157
865.835
866.885
865.965
865.635
865.842
866.581
867.068
866.291
866.021
866.309
867.204
868.244
867.42
867.161
867.434
868.286
868.552
867.949
867.831
868.238
869.203
868.206
867.52
867.329
867.679
868.612
869.465
868.908
868.832
869.271
870.251
869.663
869.082
868.983
869.404
870.375
870.363
869.822
869.761
870.21
871.195
866.246
865.303
864.946
865.122
865.824
866.943
866.218
865.991
866.311
867.226
868.362
867.779
867.679
868.099
869.071
868.504
867.944
867.867
868.305
869.286
867.69
867.069
866.934
867.328
868.285
867.931
867.34
867.233
867.649
868.618
868.922
868.384
868.327
868.782
869.771
869.178
868.657
868.616
869.083
870.079
870.769
870.266
870.241
870.72
871.721
870.78
870.294
870.286
870.778
871.787
869.433
868.898
868.843
869.298
870.288
869.434
868.915
868.876
869.344
870.34
866.611
865.611
865.219
865.364
866.06
867.185
866.364
866.062
866.32
867.198
866.495
865.641
865.311
865.529
866.316
867.284
866.585
866.378
866.715
867.64
867.551
866.92
866.775
867.161
868.114
866.9
866.162
865.92
866.227
867.135
868.803
868.265
868.207
868.661
869.651
870.236
869.744
869.731
870.219
871.226
868.477
867.921
867.846
868.286
869.269
870.249
869.294
868.901
869.037
869.657
870.888
869.401
869.477
867.762
867.73
869.556
869.7
867.813
867.893
871.178
873.045
871.192
872.871
871.364
871.275
872.564
869.353
869.439
867.697
867.653
869.528
869.674
867.764
867.875
871.276
873.25
871.286
873.028
871.45
871.316
872.701
869.379
869.475
867.685
867.629
869.573
869.728
867.771
867.89
871.371
873.765
871.384
873.475
871.551
871.409
873.08
869.729
869.824
867.997
867.935
869.934
870.119
868.09
868.229
871.851
874.385
871.845
874.076
871.992
871.828
873.603
870.349
870.44
868.622
868.56
870.55
870.77
868.714
868.853
872.486
874.858
872.469
874.612
872.591
872.471
874.152
871.461
871.545
869.765
869.704
871.634
871.819
869.853
869.977
873.481
875.666
873.446
875.435
873.546
873.416
874.971
865.146
865.135
866.304
866.3
865.161
865.184
866.33
866.373
864.314
863.69
864.352
863.784
864.364
864.472
863.974
865.064
865.069
866.232
866.215
865.118
865.168
866.279
866.333
864.197
863.689
864.26
863.807
864.319
864.465
864.009
865.03
865.055
866.209
866.175
865.134
865.211
866.281
866.365
864.258
863.936
864.339
864.042
864.441
864.594
864.23
865.339
865.378
866.514
866.471
865.477
865.586
866.6
866.689
864.645
864.499
864.741
864.598
864.884
865.067
864.776
865.991
866.037
867.152
867.105
866.161
866.311
867.239
867.34
865.371
865.324
865.475
865.403
865.637
865.841
865.551
867.183
867.231
868.319
868.272
867.354
867.485
868.407
868.503
866.572
866.402
866.671
866.489
866.807
866.981
866.642
879.394
879.089
878.489
877.995
877.208
876.708
875.447
875.041
875.816
875.338
877.2
876.718
878.216
877.762
879.041
878.713
876.795
876.14
875.942
875.043
874.654
873.818
873.87
872.814
880.488
882.311
880.161
881.866
879.641
881.394
879.106
880.764
877.791
878.773
876.88
878.121
880.295
879.251
874.89
873.335
874.015
872.862
872.941
871.632
871.908
870.92
876.733
875.114
875.784
874.563
878.211
876.641
884.415
885.686
883.56
884.883
883.489
885.084
882.463
883.932
882.174
884.328
880.588
882.588
879.363
881.342
877.966
879.977
876.283
875.99
874.93
874.784
873.443
873.073
872.368
872
877.411
877.774
879.003
879.058
873.79
873.789
872.762
872.966
871.403
871.101
870.498
870.338
876.113
876.714
874.965
875.859
879.857
882.267
880.761
883.472
881.574
884.045
882.106
884.924
878.444
880.786
879.659
882.316
877.197
879.503
878.794
881.408
887.424
890.192
887.873
890.616
886.55
889.124
887.391
890.008
885.135
887.112
886.609
888.762
878.2
874.837
881.264
883.574
886.105
875.323
878.88
882.537
885.004
887.737
874.429
877.592
880.669
883.598
886.491
892.754
894.017
894.133
895.249
891.414
892.866
893.231
894.438
889.155
890.783
891.724
893.164
876.112
877.423
880.004
881.791
883.602
885.457
886.475
888.312
890.314
892.156
875.008
876.064
878.558
880.41
881.901
884.016
885.246
887.535
889.495
891.912
876.893
878.976
875.407
877.254
873.411
874.016
872.084
872.429
878.952
881.413
880.406
883.02
874.151
876.004
873.344
875.115
871.022
871.351
870.264
870.515
877.634
880.141
876.817
879.268
883.011
885.998
888.068
891.698
884.184
887.32
888.851
892.414
881.933
884.826
887.32
890.892
880.918
883.84
886.25
889.632
894.42
895.005
896.095
894.647
894.906
895.904
893.549
894.271
895.427
893.994
894.31
895.386
891.829
892.77
894.059
893.036
893.502
894.708
879.04
880.897
882.895
883.707
885.343
887.122
887.235
888.655
890.235
889.764
890.963
892.478
892.285
892.925
894.336
877.558
879.639
881.899
882.896
885.082
887.333
886.545
888.486
890.516
889.506
890.978
892.782
892.269
893.095
894.721
870.865
870.193
870.281
869.42
872.573
871.741
871.898
870.874
870.583
869.245
870.43
869.187
870.161
868.969
869.875
868.761
868.933
869.492
868.565
869.223
868.707
868.249
868.762
868
870.073
869.222
868.556
867.828
868.031
867.343
867.981
867.271
867.889
866.698
868.129
867.016
867.69
866.474
867.75
866.632
867.512
866.192
867.202
866.006
866.97
865.926
866.368
865.518
869.311
868.728
868.556
867.907
871.096
870.588
870.208
869.66
867.41
866.641
868.069
867.359
867.824
867.202
867.099
866.583
869.374
868.867
868.571
868.175
866.768
866.02
866.107
865.474
866.452
865.432
865.818
865.226
866.981
865.878
866.443
865.748
865.932
865.038
865.274
864.778
865.359
864.617
864.798
864.393
867.939
868.522
866.816
867.421
867.902
868.523
866.723
867.354
867.859
868.419
866.581
867.147
869.87
871.992
868.55
867.508
866.406
872.436
870.334
869.105
868.079
866.906
871.578
869.51
868.038
867.054
866.268
869.535
870.938
868.444
869.804
869.443
870.779
868.275
869.577
869.221
870.483
867.949
869.162
873.011
874.097
870.781
871.882
869.519
870.645
868.552
869.697
867.447
868.588
871.93
872.567
869.811
870.45
868.381
869.139
867.47
868.398
866.788
867.936
868.597
868.822
867.756
867.75
870.52
870.683
869.51
869.376
866.639
866.924
867.361
867.839
867.116
866.934
866.507
866.268
868.73
868.429
868.044
867.672
866.064
866.195
865.521
865.601
865.964
866.558
865.679
866.608
866.621
867.383
866.19
867.245
865.432
865.883
865.242
866.055
864.986
865.383
864.853
865.563
872.851
874.762
876.576
872.15
874.307
876.127
872.572
874.504
876.36
871.826
873.994
875.892
872.166
874.061
875.946
871.303
873.572
875.598
875.568
877.411
879.42
873.382
875.287
877.334
872.167
874.153
876.233
871.307
873.286
875.298
870.736
873.121
875.327
873.737
875.733
878.008
871.675
873.704
875.984
870.536
872.682
875.026
870.037
872.293
874.655
870.181
872.679
875.103
866.227
867.062
869.22
873.186
866.597
867.491
869.722
873.723
866.064
866.934
869.099
873.101
866.299
867.253
869.504
873.518
865.859
866.779
868.856
872.739
865.779
866.807
869.021
872.988
865.853
866.994
869.365
873.43
865.637
866.907
869.374
873.465
865.386
866.481
868.647
872.577
865.455
866.631
868.618
872.155
865.72
866.707
868.667
872.315
865.829
866.892
868.739
872.072
865.118
866.321
868.655
872.73
865.132
866.407
868.509
872.131
864.846
866.153
868.567
872.621
864.851
866.213
868.376
871.983
866.28
867.027
868.993
872.728
866.777
867.414
869.095
872.361
866.234
867.007
868.945
872.653
866.756
867.424
869.095
872.328
866.171
866.993
868.871
872.472
866.65
867.387
869.063
872.258
866.154
867.041
868.828
872.218
866.551
867.364
869.021
872.128
866.204
867.162
868.87
871.978
867.55
868.091
869.609
871.951
868.426
868.906
870.461
872.667
867.457
868.043
869.573
871.907
868.328
868.862
870.438
872.651
867.28
867.952
869.518
871.869
868.151
868.778
870.394
872.613
867.026
867.813
869.415
871.779
867.911
868.656
870.322
872.559
866.699
867.633
869.292
871.681
867.631
868.517
870.246
872.508
866.079
867.285
869.127
871.604
866.92
868.111
869.994
872.338
866.383
867.46
869.214
871.649
867.272
868.315
870.12
872.42
865.808
867.124
869.047
871.569
866.596
867.92
869.879
872.247
865.549
866.957
868.935
871.478
866.303
867.736
869.758
872.151
879.237
884.14
888.344
891.797
894.495
879.556
884.407
888.6
892.05
894.746
879.198
884.121
888.332
891.788
894.486
879.492
884.362
888.564
892.018
894.716
879.13
884.091
888.313
891.772
894.472
879.268
884.168
888.381
891.841
894.541
879.396
884.302
888.521
891.984
894.686
879.326
884.251
888.482
891.953
894.658
879.089
884.067
888.298
891.762
894.464
879.35
884.443
888.69
892.156
894.857
879.146
884.158
888.39
891.852
894.552
879.429
884.527
888.771
892.234
894.934
879.087
884.07
888.307
891.775
894.479
879.383
884.487
888.74
892.21
894.913
879.014
884.02
888.27
891.745
894.453
879.368
884.494
888.758
892.233
894.939
879.269
884.255
888.471
891.924
894.621
879.642
884.703
888.926
892.376
895.07
879.265
884.268
888.489
891.944
894.642
879.638
884.711
888.937
892.389
895.084
879.273
884.308
888.537
891.995
894.694
879.643
884.733
888.965
892.42
895.115
879.386
884.471
888.71
892.17
894.868
879.708
884.813
889.049
892.506
895.202
879.61
884.713
888.954
892.414
895.112
900.077
900.885
899.699
900.529
899.044
899.964
898.214
899.29
897.391
898.633
896.099
897.535
896.76
898.163
895.447
896.832
894.77
896.031
908.969
918.814
927.2
933.836
938.487
908.827
918.743
927.225
933.904
938.632
908.797
918.723
927.142
933.792
938.449
908.679
918.681
927.173
933.892
938.61
908.471
918.54
927.022
933.703
938.371
908.364
918.505
927.057
933.806
938.535
908.032
918.279
926.846
933.57
938.258
907.962
918.266
926.897
933.686
938.434
907.522
917.948
926.616
933.397
938.11
907.529
917.985
926.701
933.536
938.304
906.421
917.133
926.004
932.909
937.675
906.539
917.257