/*--------------------------------*- C++ -*----------------------------------*\
  =========                 |
  \\      /  F ield         | OpenFOAM: The Open Source CFD Toolbox
   \\    /   O peration     | Website:  https://openfoam.org
    \\  /    A nd           | Version:  13
     \\/     M anipulation  |
\*---------------------------------------------------------------------------*/
FoamFile
{
    format      ascii;
    class       volScalarField;
    location    "159.831886";
    object      T;
}
// * * * * * * * * * * * * * * * * * * * * * * * * * * * * * * * * * * * * * //

dimensions      [0 0 0 1 0 0 0];

internalField   nonuniform List<scalar> 
5712
(
1073.37
1073.18
1072.88
1072.59
1072.14
1071.85
1071.12
1070.88
1071.32
1071.05
1072.13
1071.85
1072.71
1072.45
1073.15
1072.95
1071.91
1071.54
1071.42
1070.91
1070.67
1070.2
1070.22
1069.61
1074.01
1075.07
1073.81
1074.8
1073.55
1074.56
1073.24
1074.2
1072.49
1073.06
1071.97
1072.69
1073.93
1073.33
1070.81
1069.91
1070.31
1069.64
1069.68
1068.92
1069.09
1068.51
1071.88
1070.94
1071.34
1070.63
1072.73
1071.82
1076.28
1077.01
1075.78
1076.53
1075.77
1076.68
1075.18
1076.01
1075.02
1076.25
1074.11
1075.25
1073.4
1074.53
1072.59
1073.74
1071.63
1071.47
1070.85
1070.77
1069.99
1069.78
1069.36
1069.15
1072.29
1072.5
1073.2
1073.24
1070.19
1070.19
1069.59
1069.71
1068.8
1068.63
1068.27
1068.18
1071.53
1071.88
1070.87
1071.38
1073.69
1075.07
1074.21
1075.76
1074.69
1076.09
1074.99
1076.59
1072.88
1074.22
1073.58
1075.09
1072.15
1073.47
1073.07
1074.57
1078
1079.58
1078.26
1079.83
1077.53
1079
1078
1079.5
1076.72
1077.85
1077.56
1078.79
1072.74
1070.8
1074.51
1075.84
1077.28
1071.07
1073.13
1075.24
1076.65
1078.21
1070.56
1072.39
1074.17
1075.85
1077.49
1081.04
1081.76
1081.83
1082.47
1080.3
1081.13
1081.34
1082.03
1079.02
1079.95
1080.48
1081.3
1071.53
1072.29
1073.78
1074.8
1075.85
1076.91
1077.5
1078.55
1079.68
1080.73
1070.9
1071.52
1072.95
1074.02
1074.88
1076.09
1076.79
1078.1
1079.2
1080.58
1071.99
1073.19
1071.13
1072.19
1069.98
1070.33
1069.21
1069.41
1073.18
1074.58
1074.02
1075.51
1070.4
1071.47
1069.93
1070.94
1068.59
1068.78
1068.14
1068.28
1072.41
1073.84
1071.93
1073.33
1075.5
1077.2
1078.37
1080.42
1076.18
1077.96
1078.83
1080.84
1074.88
1076.52
1077.94
1079.96
1074.29
1075.95
1077.32
1079.24
1081.99
1082.31
1082.9
1082.13
1082.27
1082.81
1081.51
1081.91
1082.55
1081.77
1081.94
1082.53
1080.54
1081.07
1081.77
1081.23
1081.48
1082.14
1073.22
1074.28
1075.41
1075.9
1076.83
1077.83
1077.92
1078.72
1079.6
1079.37
1080.05
1080.88
1080.8
1081.15
1081.93
1072.38
1073.57
1074.85
1075.45
1076.69
1077.95
1077.53
1078.63
1079.76
1079.22
1080.05
1081.05
1080.78
1081.24
1082.13
1068.46
1068.08
1068.12
1067.63
1069.46
1068.99
1069.07
1068.48
1068.27
1067.5
1068.18
1067.46
1068.05
1067.35
1067.88
1067.23
1067.34
1067.66
1067.13
1067.51
1067.2
1066.93
1067.24
1066.8
1068.02
1067.52
1067.11
1066.69
1066.81
1066.41
1066.77
1066.36
1066.71
1066.02
1066.84
1066.2
1066.61
1065.9
1066.64
1065.99
1066.51
1065.74
1066.32
1065.62
1066.18
1065.57
1065.83
1065.32
1067.57
1067.24
1067.13
1066.76
1068.62
1068.33
1068.1
1067.79
1066.46
1066.01
1066.84
1066.44
1066.7
1066.34
1066.27
1065.98
1067.61
1067.32
1067.14
1066.91
1066.08
1065.65
1065.69
1065.32
1065.89
1065.29
1065.53
1065.17
1066.2
1065.55
1065.89
1065.48
1065.58
1065.05
1065.2
1064.91
1065.24
1064.8
1064.92
1064.67
1066.75
1067.09
1066.1
1066.46
1066.73
1067.1
1066.05
1066.42
1066.71
1067.04
1065.97
1066.3
1067.9
1069.14
1067.13
1066.52
1065.87
1069.4
1068.17
1067.45
1066.85
1066.16
1068.91
1067.7
1066.83
1066.25
1065.79
1067.68
1068.5
1067.05
1067.85
1067.64
1068.41
1066.96
1067.72
1067.51
1068.25
1066.77
1067.48
1069.73
1070.36
1068.44
1069.08
1067.7
1068.35
1067.13
1067.8
1066.48
1067.15
1069.11
1069.49
1067.88
1068.25
1067.04
1067.48
1066.5
1067.05
1066.1
1066.77
1067.17
1067.31
1066.68
1066.68
1068.3
1068.4
1067.71
1067.63
1066.02
1066.19
1066.44
1066.73
1066.3
1066.2
1065.94
1065.8
1067.25
1067.08
1066.84
1066.62
1065.68
1065.76
1065.35
1065.4
1065.62
1065.97
1065.44
1065.99
1066
1066.46
1065.74
1066.37
1065.3
1065.57
1065.18
1065.66
1065.03
1065.27
1064.95
1065.37
1069.6
1070.7
1071.74
1069.21
1070.45
1071.49
1069.45
1070.57
1071.63
1069.02
1070.27
1071.36
1069.22
1070.32
1071.39
1068.72
1070.04
1071.2
1071.22
1072.27
1073.42
1069.95
1071.04
1072.21
1069.24
1070.38
1071.57
1068.74
1069.88
1071.03
1068.4
1069.78
1071.05
1070.17
1071.32
1072.61
1068.97
1070.14
1071.44
1068.3
1069.54
1070.89
1068.01
1069.31
1070.67
1068.08
1069.53
1070.92
1065.75
1066.24
1067.51
1069.83
1065.96
1066.49
1067.8
1070.13
1065.66
1066.17
1067.44
1069.78
1065.79
1066.35
1067.68
1070.02
1065.54
1066.08
1067.3
1069.57
1065.49
1066.09
1067.4
1069.72
1065.53
1066.2
1067.59
1069.97
1065.39
1066.14
1067.59
1069.99
1065.26
1065.9
1067.18
1069.48
1065.3
1065.99
1067.16
1069.23
1065.46
1066.04
1067.19
1069.32
1065.52
1066.14
1067.23
1069.18
1065.1
1065.81
1067.18
1069.56
1065.11
1065.85
1067.09
1069.21
1064.93
1065.7
1067.13
1069.5
1064.94
1065.74
1067.01
1069.12
1065.79
1066.23
1067.38
1069.56
1066.08
1066.45
1067.44
1069.35
1065.76
1066.22
1067.36
1069.52
1066.07
1066.46
1067.44
1069.33
1065.72
1066.21
1067.31
1069.41
1066
1066.44
1067.42
1069.29
1065.71
1066.23
1067.28
1069.26
1065.95
1066.42
1067.39
1069.21
1065.74
1066.3
1067.3
1069.12
1066.53
1066.85
1067.74
1069.1
1067.04
1067.32
1068.23
1069.5
1066.47
1066.82
1067.71
1069.07
1066.98
1067.29
1068.21
1069.49
1066.37
1066.76
1067.68
1069.05
1066.88
1067.24
1068.18
1069.47
1066.22
1066.68
1067.62
1069
1066.74
1067.17
1068.14
1069.44
1066.03
1066.57
1067.55
1068.94
1066.57
1067.09
1068.1
1069.41
1065.66
1066.37
1067.45
1068.89
1066.15
1066.84
1067.94
1069.3
1065.84
1066.47
1067.5
1068.92
1066.36
1066.97
1068.02
1069.35
1065.5
1066.27
1067.4
1068.87
1065.96
1066.73
1067.87
1069.25
1065.34
1066.17
1067.33
1068.81
1065.78
1066.62
1067.8
1069.19
1073.34
1076.17
1078.58
1080.54
1082.05
1073.52
1076.32
1078.72
1080.67
1082.18
1073.32
1076.16
1078.57
1080.53
1082.04
1073.49
1076.3
1078.7
1080.66
1082.17
1073.28
1076.14
1078.56
1080.53
1082.04
1073.36
1076.19
1078.6
1080.56
1082.07
1073.43
1076.26
1078.68
1080.64
1082.15
1073.39
1076.23
1078.65
1080.62
1082.14
1073.26
1076.13
1078.55
1080.52
1082.03
1073.4
1076.34
1078.77
1080.74
1082.24
1073.29
1076.18
1078.61
1080.57
1082.08
1073.45
1076.39
1078.82
1080.78
1082.29
1073.26
1076.13
1078.56
1080.53
1082.04
1073.42
1076.36
1078.8
1080.76
1082.27
1073.21
1076.1
1078.54
1080.51
1082.02
1073.41
1076.37
1078.81
1080.78
1082.29
1073.36
1076.24
1078.65
1080.61
1082.12
1073.57
1076.49
1078.91
1080.86
1082.37
1073.36
1076.24
1078.66
1080.62
1082.13
1073.57
1076.49
1078.91
1080.86
1082.37
1073.36
1076.27
1078.69
1080.65
1082.16
1073.57
1076.5
1078.92
1080.88
1082.39
1073.42
1076.36
1078.78
1080.74
1082.25
1073.61
1076.55
1078.97
1080.93
1082.43
1073.55
1076.49
1078.92
1080.88
1082.38
1085.17
1085.62
1084.96
1085.42
1084.59
1085.1
1084.12
1084.72
1083.65
1084.34
1082.9
1083.71
1083.28
1084.07
1082.53
1083.3
1082.14
1082.84
1090.11
1095.51
1100.05
1103.58
1106.01
1090.03
1095.47
1100.06
1103.62
1106.09
1090.02
1095.46
1100.01
1103.56
1105.99
1089.95
1095.43
1100.03
1103.61
1106.07
1089.83
1095.36
1099.95
1103.51
1105.95
1089.77
1095.34
1099.96
1103.56
1106.03
1089.58
1095.21
1099.85
1103.44
1105.89
1089.54
1095.2
1099.87
1103.49
1105.98
1089.29
1095.02
1099.72
1103.34
1105.81
1089.3
1095.04
1099.76
1103.41
1105.9
1088.67
1094.57
1099.38
1103.07
1105.57
1088.73
1094.63
1099.46
1103.17
1105.68
1088.98
1094.8
1099.56
1103.21
1105.7
1089.03
1094.85
1099.63
1103.31
1105.81
1088.35
1094.32
1099.19
1102.92
1105.43
1088.4
1094.37
1099.26
1103
1105.53
1088.03
1094.07
1099
1102.76
1105.29
1088.03
1094.1
1099.03
1102.82
1105.38
1067.31
1068.02
1068.64
1067.83
1068.91
1068.8
1068.76
1068.61
1068.99
1068.79
1069.94
1069.7
1070.44
1070.17
1069.73
1069.5
1069.45
1069.3
1069.4
1069.28
1067.88
1067.71
1069.88
1070.75
1071.02
1071.1
1070.31
1069.88
1070.87
1069.72
1071.72
1073.01
1069.96
1070.31
1071.31
1070.23
1070.67
1070.75
1069.06
1069
1069.55
1069.37
1069.11
1068.9
1069.15
1069.47
1070.58
1070.37
1069.95
1069.75
1068.23
1067.97
1068.43
1068.22
1068.55
1068.62
1069.22
1069.97
1069.2
1066.59
1065.93
1065.65
1065.69
1066.06
1066.75
1066.2
1065.96
1066.06
1066.53
1069.24
1068.94
1068.91
1069.17
1069.73
1070.13
1069.85
1069.85
1070.13
1070.7
1070.39
1070.1
1070.09
1070.36
1070.92
1070.48
1070.21
1070.21
1070.49
1071.06
1069.67
1069.38
1069.36
1069.63
1070.19
1068.46
1067.61
1067.17
1067.08
1067.35
1069.36
1068.44
1067.97
1067.89
1068.19
1068.71
1068.07
1067.73
1067.76
1068.2
1070.34
1069.45
1069.02
1068.97
1069.35
1071.66
1070.75
1070.31
1070.26
1070.64
1069.16
1068.7
1068.52
1068.66
1069.17
1069.39
1068.81
1068.52
1068.59
1069.05
1070.42
1069.86
1069.59
1069.67
1070.14
1069.49
1069.08
1068.95
1069.13
1069.65
1069.88
1069.43
1069.25
1069.4
1069.9
1070.03
1069.64
1069.52
1069.7
1070.23
1067.77
1067.04
1066.68
1066.65
1066.96
1068.11
1067.57
1067.32
1067.41
1067.88
1068.8
1068.38
1068.24
1068.41
1068.92
1068.65
1068.26
1068.15
1068.35
1068.89
1068.33
1067.89
1067.73
1067.89
1068.39
1068.17
1067.77
1067.65
1067.84
1068.37
1068.47
1068.13
1068.06
1068.29
1068.84
1068.79
1068.45
1068.39
1068.62
1069.17
1069.91
1069.57
1069.51
1069.74
1070.29
1069.72
1069.41
1069.37
1069.62
1070.18
1069.25
1068.88
1068.78
1068.99
1069.52
1069.07
1068.72
1068.65
1068.88
1069.42
1066.97
1066.3
1065.99
1066.02
1066.36
1067.07
1066.55
1066.33
1066.44
1066.92
1067.39
1066.79
1066.5
1066.54
1066.94
1067.42
1066.97
1066.8
1066.95
1067.46
1067.8
1067.38
1067.24
1067.42
1067.94
1067.75
1067.23
1067
1067.1
1067.58
1068.53
1068.18
1068.11
1068.33
1068.88
1069.32
1069
1068.96
1069.21
1069.77
1068.49
1068.12
1068.03
1068.23
1068.77
1067.74
1068.13
1067.77
1068.21
1066.8
1067.25
1066.78
1067.18
1067.8
1067.86
1068.23
1068.14
1066.81
1066.83
1067.23
1067.11
1068.73
1069.71
1069.09
1070.02
1068.74
1069.62
1069.15
1070.02
1069.17
1068.8
1068.96
1068.72
1069.49
1069.86
1068.74
1069.18
1068.55
1069.03
1067.78
1068.25
1067.51
1067.96
1069.67
1070.14
1069.38
1069.93
1070.38
1070.95
1070.6
1071.38
1070.87
1071.61
1070.54
1071.46
1070.89
1071.71
1070.38
1071.63
1070.62
1071.73
1071.1
1072.24
1071.76
1072.92
1068.16
1068.42
1068.36
1068.65
1066.92
1067.01
1067.14
1067.21
1069.54
1070.26
1069.36
1070.02
1068.68
1068.94
1069.1
1069.29
1067.45
1067.47
1067.83
1067.79
1069.87
1070.56
1070.32
1070.94
1070.77
1072.15
1071.93
1073.5
1070.65
1072.14
1071.72
1073.37
1071.08
1072.41
1072.22
1073.74
1071.56
1072.86
1072.62
1074.11
1070.67
1071.12
1071.53
1072.25
1070.59
1070.97
1071.66
1072.35
1070.46
1070.66
1071.89
1072.46
1068.11
1066.83
1069.37
1070.71
1072.43
1066.79
1068.01
1069.26
1070.68
1072.72
1066.9
1068.28
1069.86
1071.6
1073.38
1071.86
1072.19
1074.14
1074.8
1071.51
1071.85
1074
1074.67
1071
1071.28
1073.83
1074.51
1066.82
1067
1068.12
1068.33
1069.47
1069.69
1071.11
1071.4
1074.05
1074.77
1066.91
1067.1
1068.42
1068.87
1070.15
1070.72
1072.14
1072.83
1074.84
1075.71
1068.78
1069.56
1068.99
1069.79
1067.06
1067.13
1067.24
1067.27
1070.94
1072.08
1070.68
1071.76
1069.17
1070.09
1069.52
1070.5
1067.45
1067.53
1067.76
1067.88
1071.12
1072.41
1071.51
1072.87
1073.26
1074.74
1076.22
1078.09
1072.87
1074.31
1075.68
1077.43
1073.56
1075.09
1076.68
1078.6
1073.84
1075.48
1076.92
1078.81
1072.32
1072.61
1074.37
1074.41
1071.99
1072.31
1074.28
1074.29
1071.49
1071.96
1074.2
1074.23
1067.38
1068.05
1068.74
1069.37
1070.05
1070.6
1071.69
1072.2
1074.36
1074.36
1067.47
1068.2
1069.49
1070.15
1071.26
1071.76
1073.05
1073.27
1074.89
1074.76
1065.24
1065.21
1065.65
1065.48
1065.94
1065.91
1066.37
1066.19
1064.75
1064.41
1065.14
1064.78
1064.76
1064.44
1065.19
1064.84
1065.12
1064.76
1065.06
1064.8
1064.52
1064.86
1065.86
1066.32
1066.57
1067.01
1065.62
1066.13
1065.46
1065.92
1065.34
1065.82
1064.2
1064.08
1064.57
1064.43
1064.21
1064.05
1064.59
1064.4
1064.23
1064.02
1064.52
1064.26
1064.96
1064.65
1065.38
1064.99
1065.09
1065.07
1065.28
1065.2
1065.88
1065.87
1066.09
1066.04
1064.75
1064.64
1064.57
1064.53
1065.57
1065.41
1065.9
1065.66
1066.38
1066.28
1066.74
1066.56
1065.02
1064.81
1065.33
1065.04
1064.37
1064.12
1064.32
1064.2
1064.21
1064.02
1064.23
1064.14
1064.62
1064.31
1064.47
1064.31
1064.92
1064.55
1064.67
1064.47
1064.04
1064.11
1063.95
1064.05
1064.08
1064.14
1063.95
1064.06
1064.15
1064.2
1063.97
1064.08
1065.02
1065.8
1064.51
1064.18
1064.03
1065.8
1065.06
1064.56
1064.23
1064.1
1065.78
1065.01
1064.5
1064.21
1064.14
1064.36
1064.82
1064.36
1064.84
1064.36
1064.79
1064.33
1064.8
1064.37
1064.74
1064.3
1064.73
1065.81
1065.99
1065.06
1065.28
1064.61
1064.89
1064.33
1064.66
1064.27
1064.66
1065.74
1065.81
1064.98
1065.09
1064.51
1064.7
1064.29
1064.57
1064.29
1064.68
1064.96
1064.94
1065.12
1065.01
1065.75
1065.66
1065.94
1065.75
1064.64
1064.69
1064.51
1064.62
1065.37
1065.21
1065.63
1065.47
1066.21
1065.96
1066.5
1066.26
1064.85
1064.86
1065.08
1065.11
1064.41
1064.63
1064.44
1064.82
1064.31
1064.58
1064.35
1064.75
1064.57
1064.77
1064.58
1064.97
1064.78
1065
1064.75
1065.14
1065.37
1065.89
1065.55
1066.16
1065.3
1065.86
1065.5
1066.14
1065.24
1065.85
1065.41
1066.16
1066.36
1067.04
1065.7
1066.39
1065.33
1066.03
1065.14
1065.86
1065.35
1066.24
1066.12
1066.9
1065.45
1066.26
1065.16
1066.01
1065.14
1066.03
1065.44
1066.44
1064.41
1065.34
1066.9
1069.41
1064.72
1065.66
1067.23
1069.75
1064.39
1065.32
1066.87
1069.4
1064.69
1065.61
1067.17
1069.68
1064.37
1065.29
1066.77
1069.22
1064.56
1065.47
1066.96
1069.42
1064.9
1065.78
1067.3
1069.77
1065.17
1065.99
1067.49
1069.91
1064.46
1065.36
1066.8
1069.21
1064.61
1065.52
1066.82
1068.98
1064.41
1065.33
1066.7
1068.99
1064.58
1065.51
1066.79
1068.87
1064.59
1065.46
1066.93
1069.39
1064.69
1065.57
1066.88
1069.05
1064.76
1065.58
1067.04
1069.44
1064.79
1065.64
1066.94
1069.06
1064.3
1065.24
1066.71
1069.11
1064.45
1065.38
1066.71
1068.84
1064.32
1065.25
1066.7
1069.09
1064.48
1065.41
1066.73
1068.84
1064.37
1065.3
1066.7
1069.01
1064.52
1065.45
1066.75
1068.83
1064.47
1065.4
1066.71
1068.89
1064.57
1065.51
1066.78
1068.79
1064.6
1065.54
1066.78
1068.76
1064.79
1065.71
1066.97
1068.52
1065.23
1066.16
1067.43
1068.88
1064.78
1065.71
1066.97
1068.51
1065.23
1066.16
1067.44
1068.89
1064.79
1065.72
1066.98
1068.52
1065.24
1066.18
1067.45
1068.9
1064.8
1065.74
1066.98
1068.52
1065.25
1066.19
1067.47
1068.91
1064.82
1065.77
1066.99
1068.52
1065.27
1066.23
1067.5
1068.93
1064.97
1065.89
1067.11
1068.62
1065.37
1066.32
1067.57
1069.01
1064.88
1065.82
1067.05
1068.57
1065.3
1066.26
1067.53
1068.96
1065.08
1065.98
1067.19
1068.7
1065.48
1066.41
1067.65
1069.06
1065.2
1066.07
1067.26
1068.75
1065.62
1066.51
1067.73
1069.13
1073.1
1076.02
1078.49
1080.48
1082
1073.29
1076.17
1078.63
1080.61
1082.13
1073.1
1076.03
1078.49
1080.48
1082
1073.28
1076.17
1078.62
1080.61
1082.13
1073.09
1076.02
1078.49
1080.48
1082
1073.19
1076.08
1078.54
1080.52
1082.04
1073.31
1076.19
1078.63
1080.61
1082.13
1073.34
1076.2
1078.64
1080.61
1082.13
1073.1
1076.04
1078.5
1080.48
1082
1073.27
1076.26
1078.72
1080.7
1082.22
1073.11
1076.07
1078.54
1080.52
1082.04
1073.29
1076.29
1078.76
1080.74
1082.25
1073.15
1076.07
1078.52
1080.5
1082.02
1073.33
1076.31
1078.76
1080.74
1082.26
1073.18
1076.08
1078.52
1080.5
1082.02
1073.38
1076.35
1078.79
1080.77
1082.28
1073.11
1076.08
1078.56
1080.55
1082.07
1073.31
1076.33
1078.81
1080.8
1082.31
1073.12
1076.1
1078.57
1080.56
1082.08
1073.32
1076.34
1078.81
1080.8
1082.32
1073.15
1076.14
1078.61
1080.59
1082.11
1073.34
1076.37
1078.84
1080.82
1082.34
1073.23
1076.24
1078.71
1080.7
1082.21
1073.4
1076.43
1078.89
1080.88
1082.4
1073.37
1076.38
1078.85
1080.83
1082.35
1078.94
1079.46
1079.01
1079.55
1079.18
1079.73
1079.44
1079.98
1079.87
1080.34
1080.96
1081.57
1080.47
1081
1081.38
1082.05
1081.76
1082.44
1085.6
1092.31
1097.67
1101.7
1104.38
1085.45
1092.23
1097.66
1101.73
1104.45
1085.66
1092.35
1097.7
1101.73
1104.4
1085.54
1092.29
1097.7
1101.77
1104.48
1085.8
1092.44
1097.77
1101.78
1104.44
1085.67
1092.38
1097.76
1101.82
1104.52
1086.01
1092.59
1097.87
1101.86
1104.51
1085.86
1092.51
1097.85
1101.89
1104.58
1086.31
1092.79
1098.02
1101.97
1104.61
1086.11
1092.68
1097.97
1101.98
1104.66
1087.02
1093.28
1098.38
1102.26
1104.86
1086.89
1093.21
1098.36
1102.28
1104.9
1086.66
1093.02
1098.19
1102.11
1104.73
1086.47
1092.91
1098.14
1102.11
1104.77
1087.37
1093.55
1098.59
1102.42
1105
1087.3
1093.51
1098.58
1102.45
1105.05
1087.71
1093.82
1098.79
1102.59
1105.14
1087.67
1093.81
1098.81
1102.64
1105.22
1066.73
1067.4
1066.91
1066.21
1065.25
1065.65
1065.25
1065.7
1065.94
1066.41
1065.94
1066.34
1073.96
1073.83
1073.52
1073.02
1072.35
1071.55
1074.01
1073.88
1073.59
1073.12
1072.51
1071.79
1074.27
1074.74
1074.13
1074.58
1073.78
1074.18
1073.22
1073.53
1072.46
1072.71
1071.59
1071.85
1070.68
1069.86
1069.16
1068.58
1068.14
1067.83
1071.03
1070.28
1069.61
1069.05
1068.62
1068.31
1073.38
1073.15
1073.19
1073.5
1074.08
1073.25
1073.02
1073.06
1073.37
1073.95
1072.94
1072.7
1072.74
1073.05
1073.62
1072.44
1072.2
1072.23
1072.53
1073.11
1071.76
1071.51
1071.54
1071.84
1072.41
1070.94
1070.68
1070.7
1070.99
1071.56
1073.43
1073.2
1073.24
1073.55
1074.12
1073.31
1073.08
1073.11
1073.42
1074
1073.01
1072.77
1072.81
1073.11
1073.69
1072.54
1072.3
1072.33
1072.63
1073.21
1071.92
1071.67
1071.69
1071.99
1072.57
1071.19
1070.93
1070.94
1071.23
1071.8
1073.7
1073.47
1073.51
1073.82
1074.4
1074.17
1073.94
1073.98
1074.29
1074.87
1073.55
1073.33
1073.36
1073.67
1074.25
1074.01
1073.78
1073.82
1074.12
1074.7
1073.2
1072.97
1073
1073.31
1073.89
1073.6
1073.37
1073.41
1073.72
1074.29
1072.63
1072.39
1072.43
1072.73
1073.31
1072.95
1072.71
1072.75
1073.05
1073.62
1071.87
1071.62
1071.65
1071.95
1072.52
1072.11
1071.87
1071.89
1072.19
1072.76
1070.98
1070.73
1070.74
1071.03
1071.6
1071.24
1070.98
1071
1071.28
1071.86
1070.06
1069.78
1069.78
1070.06
1070.63
1069.22
1068.92
1068.89
1069.15
1069.71
1068.48
1068.14
1068.08
1068.32
1068.87
1067.85
1067.47
1067.37
1067.57
1068.11
1067.36
1066.94
1066.79
1066.97
1067.49
1067.01
1066.56
1066.4
1066.56
1067.07
1070.41
1070.13
1070.13
1070.41
1070.98
1069.64
1069.34
1069.32
1069.58
1070.15
1068.95
1068.62
1068.57
1068.82
1069.37
1068.35
1068
1067.92
1068.14
1068.69
1067.89
1067.51
1067.41
1067.61
1068.15
1067.57
1067.17
1067.06
1067.25
1067.79
1073.89
1073.64
1073.21
1072.58
1071.79
1070.85
1073.94
1073.7
1073.28
1072.69
1071.96
1071.13
1074.21
1074.67
1073.94
1074.38
1073.45
1073.84
1072.76
1073.05
1071.87
1072.08
1070.84
1071.05
1069.86
1068.96
1068.24
1067.76
1067.57
1067.62
1070.28
1069.49
1068.84
1068.39
1068.17
1068.15
1073.32
1073.09
1073.13
1073.44
1074.02
1073.07
1072.84
1072.88
1073.19
1073.77
1072.63
1072.4
1072.43
1072.74
1073.32
1072
1071.76
1071.8
1072.11
1072.69
1071.2
1070.95
1070.98
1071.29
1071.87
1070.25
1070
1070.02
1070.32
1070.9
1073.37
1073.14
1073.18
1073.49
1074.06
1073.12
1072.89
1072.93
1073.24
1073.82
1072.7
1072.47
1072.5
1072.81
1073.39
1072.11
1071.87
1071.9
1072.21
1072.79
1071.37
1071.13
1071.16
1071.46
1072.04
1070.53
1070.28
1070.3
1070.6
1071.18
1073.63
1073.41
1073.45
1073.76
1074.33
1074.1
1073.88
1073.92
1074.23
1074.8
1073.36
1073.13
1073.17
1073.48
1074.06
1073.8
1073.58
1073.62
1073.92
1074.5
1072.88
1072.65
1072.68
1072.99
1073.57
1073.26
1073.04
1073.07
1073.38
1073.96
1072.17
1071.94
1071.98
1072.28
1072.86
1072.47
1072.24
1072.27
1072.58
1073.16
1071.28
1071.04
1071.07
1071.37
1071.96
1071.49
1071.25
1071.28
1071.58
1072.16
1070.24
1069.99
1070.02
1070.32
1070.9
1070.45
1070.2
1070.22
1070.52
1071.1
1069.25
1068.98
1068.99
1069.28
1069.86
1068.32
1068.04
1068.03
1068.31
1068.88
1067.58
1067.26
1067.22
1067.48
1068.05
1067.06
1066.7
1066.62
1066.85
1067.4
1066.81
1066.4
1066.28
1066.47
1067.01
1066.81
1066.37
1066.21
1066.38
1066.9
1069.66
1069.4
1069.4
1069.69
1070.27
1068.85
1068.57
1068.56
1068.84
1069.41
1068.18
1067.87
1067.84
1068.1
1068.67
1067.71
1067.37
1067.3
1067.54
1068.1
1067.45
1067.08
1066.99
1067.21
1067.75
1067.41
1067.02
1066.91
1067.11
1067.65
1067.52
1067.43
1068.85
1069.86
1069.91
1070.15
1069.22
1066.92
1067.2
1067.06
1067.87
1067.8
1067.65
1068.3
1068.42
1068.81
1066.86
1066.95
1067.68
1067.76
1067.32
1067.45
1068.01
1068.14
1069.04
1069.05
1068.28
1068.28
1067.18
1067.2
1066.86
1067.15
1067.26
1066.94
1067.93
1068.74
1067.75
1066.25
1065.62
1065.37
1065.43
1065.82
1066.48
1065.94
1065.72
1065.84
1066.32
1068.21
1067.93
1067.93
1068.21
1068.79
1069.24
1068.98
1069
1069.29
1069.87
1069.29
1069.02
1069.03
1069.32
1069.9
1069.54
1069.28
1069.29
1069.59
1070.17
1068.6
1068.33
1068.33
1068.62
1069.2
1065.8
1065.23
1065.01
1065.1
1065.49
1066.12
1065.57
1065.38
1065.49
1065.92
1066.23
1065.77
1065.61
1065.78
1066.29
1066.9
1066.42
1066.26
1066.42
1066.91
1067.1
1066.75
1066.67
1066.91
1067.46
1066.89
1066.49
1066.37
1066.57
1067.11
1067.63
1067.31
1067.26
1067.51
1068.07
1067.74
1067.4
1067.34
1067.58
1068.14
1068.15
1067.83
1067.8
1068.05
1068.62
1065.76
1065.2
1064.99
1065.09
1065.49
1066.17
1065.74
1065.61
1065.79
1066.32
1066.99
1066.65
1066.59
1066.83
1067.39
1067.08
1066.76
1066.71
1066.96
1067.53
1066.61
1066.24
1066.16
1066.39
1066.94
1066.76
1066.41
1066.35
1066.58
1067.14
1067.35
1067.03
1067
1067.26
1067.83
1067.49
1067.19
1067.16
1067.43
1068
1068.4
1068.11
1068.09
1068.36
1068.94
1068.42
1068.14
1068.13
1068.41
1068.99
1067.62
1067.31
1067.28
1067.54
1068.1
1067.63
1067.33
1067.3
1067.57
1068.14
1065.99
1065.4
1065.16
1065.24
1065.64
1066.33
1065.85
1065.67
1065.81
1066.32
1065.91
1065.41
1065.21
1065.34
1065.79
1066.38
1065.97
1065.85
1066.04
1066.57
1066.54
1066.17
1066.08
1066.3
1066.85
1066.15
1065.72
1065.57
1065.75
1066.27
1067.27
1066.96
1066.92
1067.18
1067.75
1068.11
1067.82
1067.81
1068.09
1068.67
1067.07
1066.75
1066.71
1066.96
1067.52
1068.06
1067.51
1067.28
1067.37
1067.73
1068.44
1067.61
1067.65
1066.65
1066.63
1067.7
1067.79
1066.68
1066.73
1068.64
1069.73
1068.65
1069.63
1068.75
1068.7
1069.45
1067.58
1067.63
1066.61
1066.58
1067.68
1067.77
1066.65
1066.71
1068.7
1069.85
1068.71
1069.72
1068.8
1068.72
1069.53
1067.59
1067.65
1066.6
1066.56
1067.71
1067.8
1066.65
1066.72
1068.75
1070.14
1068.76
1069.97
1068.86
1068.77
1069.74
1067.79
1067.85
1066.78
1066.74
1067.91
1068.02
1066.83
1066.91
1069.03
1070.49
1069.02
1070.31
1069.11
1069.01
1070.04
1068.15
1068.2
1067.13
1067.1
1068.26
1068.39
1067.19
1067.27
1069.39
1070.76
1069.38
1070.62
1069.45
1069.37
1070.35
1068.78
1068.83
1067.79
1067.76
1068.88
1068.99
1067.84
1067.91
1069.95
1071.22
1069.93
1071.08
1069.99
1069.91
1070.81
1065.1
1065.1
1065.79
1065.78
1065.11
1065.13
1065.81
1065.83
1064.61
1064.24
1064.63
1064.29
1064.64
1064.71
1064.41
1065.05
1065.06
1065.74
1065.73
1065.09
1065.12
1065.77
1065.81
1064.54
1064.23
1064.58
1064.3
1064.61
1064.7
1064.43
1065.03
1065.05
1065.73
1065.71
1065.09
1065.14
1065.77
1065.82
1064.57
1064.37
1064.62
1064.44
1064.68
1064.77
1064.55
1065.21
1065.23
1065.9
1065.88
1065.29
1065.35
1065.95
1066.01
1064.79
1064.7
1064.85
1064.76
1064.94
1065.04
1064.87
1065.58
1065.61
1066.27
1066.24
1065.68
1065.77
1066.32
1066.38
1065.21
1065.18
1065.28
1065.23
1065.37
1065.49
1065.32
1066.27
1066.3
1066.94
1066.92
1066.37
1066.45
1066.99
1067.05
1065.91
1065.8
1065.97
1065.86
1066.05
1066.15
1065.95
1073.4
1073.23
1072.88
1072.6
1072.14
1071.86
1071.12
1070.89
1071.33
1071.06
1072.13
1071.86
1072.72
1072.46
1073.19
1073
1071.91
1071.54
1071.42
1070.91
1070.67
1070.2
1070.22
1069.62
1074.03
1075.09
1073.85
1074.83
1073.55
1074.57
1073.24
1074.2
1072.49
1073.06
1071.97
1072.69
1073.94
1073.34
1070.81
1069.91
1070.31
1069.64
1069.68
1068.92
1069.09
1068.51
1071.88
1070.94
1071.34
1070.63
1072.73
1071.82
1076.3
1077.02
1075.8
1076.55
1075.77
1076.68
1075.18
1076.01
1075.02
1076.25
1074.11
1075.25
1073.4
1074.53
1072.59
1073.74
1071.64
1071.47
1070.85
1070.77
1069.99
1069.78
1069.36
1069.16
1072.29
1072.5
1073.21
1073.24
1070.19
1070.19
1069.59
1069.71
1068.8
1068.63
1068.27
1068.18
1071.54
1071.88
1070.87
1071.39
1073.7
1075.07
1074.22
1075.76
1074.69
1076.09
1074.99
1076.6
1072.88
1074.22
1073.58
1075.09
1072.15
1073.47
1073.07
1074.57
1078.02
1079.6
1078.28
1079.84
1077.53
1079
1078.01
1079.5
1076.72
1077.85
1077.56
1078.79
1072.74
1070.8
1074.51
1075.84
1077.28
1071.08
1073.13
1075.24
1076.66
1078.21
1070.56
1072.4
1074.17
1075.85
1077.49
1081.06
1081.78
1081.85
1082.48
1080.3
1081.13
1081.34
1082.03
1079.02
1079.95
1080.48
1081.3
1071.53
1072.29
1073.78
1074.81
1075.85
1076.91
1077.5
1078.55
1079.68
1080.73
1070.9
1071.52
1072.95
1074.02
1074.88
1076.09
1076.79
1078.1
1079.2
1080.58
1072
1073.19
1071.13
1072.2
1069.98
1070.33
1069.21
1069.41
1073.18
1074.58
1074.02
1075.51
1070.4
1071.47
1069.93
1070.95
1068.59
1068.78
1068.14
1068.28
1072.41
1073.84
1071.93
1073.33
1075.5
1077.2
1078.37
1080.43
1076.18
1077.96
1078.83
1080.84
1074.88
1076.52
1077.94
1079.96
1074.29
1075.95
1077.33
1079.24
1082.01
1082.33
1082.92
1082.14
1082.28
1082.82
1081.51
1081.91
1082.55
1081.77
1081.94
1082.53
1080.54
1081.07
1081.77
1081.23
1081.48
1082.15
1073.22
1074.28
1075.41
1075.9
1076.83
1077.83
1077.92
1078.72
1079.6
1079.37
1080.05
1080.89
1080.8
1081.15
1081.93
1072.38
1073.57
1074.85
1075.45
1076.69
1077.95
1077.54
1078.63
1079.76
1079.22
1080.05
1081.05
1080.78
1081.24
1082.13
1068.46
1068.08
1068.12
1067.63
1069.46
1068.99
1069.07
1068.48
1068.29
1067.51
1068.2
1067.48
1068.05
1067.35
1067.88
1067.23
1067.34
1067.66
1067.13
1067.51
1067.2
1066.94
1067.25
1066.8
1068.02
1067.52
1067.11
1066.69
1066.81
1066.41
1066.78
1066.36
1066.72
1066.03
1066.86
1066.21
1066.61
1065.9
1066.64
1065.99
1066.51
1065.74
1066.32
1065.62
1066.18
1065.57
1065.83
1065.32
1067.58
1067.24
1067.13
1066.76
1068.62
1068.33
1068.1
1067.79
1066.46
1066.01
1066.84
1066.44
1066.7
1066.34
1066.27
1065.98
1067.61
1067.32
1067.14
1066.91
1066.08
1065.65
1065.69
1065.32
1065.89
1065.29
1065.53
1065.17
1066.21
1065.56
1065.9
1065.48
1065.58
1065.05
1065.2
1064.91
1065.24
1064.8
1064.92
1064.67
1066.75
1067.1
1066.1
1066.46
1066.74
1067.1
1066.05
1066.42
1066.71
1067.04
1065.97
1066.3
1067.9
1069.14
1067.13
1066.52
1065.87
1069.4
1068.17
1067.45
1066.85
1066.16
1068.91
1067.7
1066.83
1066.25
1065.79
1067.69
1068.5
1067.06
1067.85
1067.64
1068.41
1066.96
1067.72
1067.51
1068.25
1066.77
1067.48
1069.73
1070.37
1068.44
1069.08
1067.7
1068.35
1067.13
1067.8
1066.48
1067.15
1069.12
1069.49
1067.88
1068.25
1067.04
1067.49
1066.5
1067.05
1066.1
1066.77
1067.17
1067.31
1066.68
1066.68
1068.3
1068.4
1067.71
1067.63
1066.02
1066.19
1066.44
1066.73
1066.3
1066.2
1065.94
1065.8
1067.25
1067.08
1066.84
1066.62
1065.68
1065.76
1065.35
1065.4
1065.62
1065.97
1065.44
1065.99
1066
1066.46
1065.74
1066.37
1065.3
1065.57
1065.18
1065.66
1065.03
1065.27
1064.95
1065.37
1069.61
1070.71
1071.75
1069.21
1070.45
1071.49
1069.45
1070.56
1071.63
1069.02
1070.27
1071.36
1069.22
1070.32
1071.4
1068.73
1070.04
1071.2
1071.22
1072.27
1073.42
1069.95
1071.04
1072.21
1069.24
1070.38
1071.57
1068.74
1069.88
1071.03
1068.4
1069.78
1071.05
1070.17
1071.32
1072.61
1068.97
1070.14
1071.45
1068.3
1069.55
1070.89
1068.01
1069.31
1070.67
1068.08
1069.53
1070.92
1065.75
1066.25
1067.52
1069.83
1065.97
1066.49
1067.8
1070.14
1065.66
1066.17
1067.45
1069.78
1065.79
1066.35
1067.68
1070.02
1065.54
1066.08
1067.3
1069.57
1065.49
1066.09
1067.4
1069.71
1065.53
1066.2
1067.59
1069.97
1065.39
1066.14
1067.59
1069.99
1065.26
1065.9
1067.18
1069.48
1065.3
1065.99
1067.16
1069.22
1065.46
1066.04
1067.19
1069.32
1065.52
1066.14
1067.23
1069.18
1065.1
1065.81
1067.18
1069.56
1065.11
1065.85
1067.09
1069.21
1064.93
1065.7
1067.13
1069.5
1064.94
1065.74
1067.01
1069.12
1065.79
1066.23
1067.38
1069.57
1066.08
1066.45
1067.44
1069.35
1065.76
1066.22
1067.36
1069.52
1066.07
1066.46
1067.44
1069.33
1065.72
1066.21
1067.31
1069.41
1066
1066.44
1067.42
1069.29
1065.71
1066.23
1067.28
1069.26
1065.95
1066.42
1067.39
1069.21
1065.74
1066.3
1067.3
1069.12
1066.53
1066.85
1067.74
1069.1
1067.04
1067.31
1068.22
1069.5
1066.47
1066.82
1067.71
1069.07
1066.98
1067.29
1068.21
1069.49
1066.37
1066.76
1067.68
1069.05
1066.88
1067.24
1068.18
1069.47
1066.22
1066.68
1067.62
1069
1066.74
1067.17
1068.14
1069.44
1066.03
1066.57
1067.55
1068.94
1066.57
1067.09
1068.1
1069.41
1065.66
1066.37
1067.45
1068.89
1066.15
1066.84
1067.94
1069.3
1065.84
1066.47
1067.5
1068.92
1066.36
1066.97
1068.02
1069.35
1065.5
1066.27
1067.4
1068.87
1065.96
1066.73
1067.87
1069.25
1065.34
1066.17
1067.33
1068.81
1065.78
1066.62
1067.8
1069.19
1073.34
1076.17
1078.58
1080.54
1082.05
1073.52
1076.32
1078.72
1080.68
1082.18
1073.32
1076.16
1078.57
1080.53
1082.04
1073.49
1076.3
1078.7
1080.66
1082.17
1073.28
1076.14
1078.56
1080.53
1082.03
1073.36
1076.19
1078.6
1080.56
1082.07
1073.43
1076.26
1078.68
1080.64
1082.15
1073.39
1076.23
1078.65
1080.62
1082.13
1073.26
1076.13
1078.55
1080.52
1082.03
1073.4
1076.34
1078.77
1080.73
1082.24
1073.29
1076.18
1078.6
1080.57
1082.08
1073.45
1076.39
1078.82
1080.78
1082.29
1073.25
1076.13
1078.56
1080.53
1082.04
1073.42
1076.36
1078.8
1080.76
1082.27
1073.21
1076.1
1078.54
1080.51
1082.02
1073.41
1076.36
1078.81
1080.78
1082.29
1073.36
1076.24
1078.65
1080.61
1082.12
1073.57
1076.49
1078.9
1080.86
1082.36
1073.36
1076.24
1078.66
1080.62
1082.13
1073.57
1076.49
1078.91
1080.86
1082.37
1073.36
1076.27
1078.69
1080.65
1082.16
1073.57
1076.5
1078.92
1080.88
1082.39
1073.42
1076.36
1078.78
1080.74
1082.25
1073.61
1076.55
1078.97
1080.93
1082.43
1073.55
1076.49
1078.92
1080.88
1082.38
1085.18
1085.63
1084.96
1085.43
1084.59
1085.1
1084.12
1084.72
1083.65
1084.34
1082.9
1083.71
1083.28
1084.07
1082.53
1083.3
1082.14
1082.84
1090.11
1095.51
1100.05
1103.58
1106.01
1090.04
1095.47
1100.06
1103.62
1106.09
1090.02
1095.46
1100.02
1103.56
1105.99
1089.95
1095.43
1100.03
1103.61
1106.07
1089.83
1095.36
1099.95
1103.51
1105.95
1089.77
1095.34
1099.96
1103.56
1106.03
1089.59
1095.21
1099.85
1103.44
1105.89
1089.55
1095.2
1099.87
1103.49
1105.98
1089.3
1095.02
1099.72
1103.34
1105.81
1089.3
1095.04
1099.77
1103.41
1105.91
1088.67
1094.57
1099.38
1103.07
1105.57
1088.73
1094.63
1099.46
1103.17
1105.68
1088.98
1094.8
1099.56