/*--------------------------------*- C++ -*----------------------------------*\
  =========                 |
  \\      /  F ield         | OpenFOAM: The Open Source CFD Toolbox
   \\    /   O peration     | Website:  https://openfoam.org
    \\  /    A nd           | Version:  12
     \\/     M anipulation  |
\*---------------------------------------------------------------------------*/
FoamFile
{
    format      ascii;
    class       volScalarField;
    location    "30";
    object      p;
}
// * * * * * * * * * * * * * * * * * * * * * * * * * * * * * * * * * * * * * //

dimensions      [0 2 -2 0 0 0 0];

internalField   nonuniform List<scalar> 
4480
(
0.0109369
0.0109392
0.0109431
0.0109486
0.0109554
0.0109631
0.0109711
0.010979
0.0109861
0.0109914
0.0109942
0.0109937
0.0109892
0.01098
0.0109659
0.0109467
0.0109226
0.010894
0.0108615
0.0108258
0.0107879
0.0107485
0.0107085
0.0106686
0.0106296
0.0105919
0.010556
0.0105222
0.0104908
0.0104618
0.0104353
0.0104111
0.0103893
0.0103695
0.0103518
0.0103359
0.0103217
0.010309
0.0102977
0.0102876
0.0102786
0.0102706
0.0102634
0.010257
0.0102513
0.0102462
0.0102415
0.0102374
0.0102336
0.0102302
0.0102271
0.0102242
0.0102216
0.0102191
0.0102168
0.0102147
0.0102127
0.0102108
0.0102089
0.0102072
0.0102054
0.0102038
0.0102021
0.0102005
0.010199
0.0101974
0.0101958
0.0101943
0.0101927
0.0101912
0.0101896
0.010188
0.0101865
0.0101849
0.0101833
0.0101816
0.01018
0.0101784
0.0101767
0.010175
0.0101734
0.0101716
0.0101699
0.0101682
0.0101664
0.0101646
0.0101628
0.010161
0.0101591
0.0101572
0.0101553
0.0101533
0.0101513
0.0101493
0.0101472
0.0101451
0.0101429
0.0101407
0.0101384
0.010136
0.0101335
0.0101309
0.0101283
0.0101255
0.0101225
0.0101194
0.0101162
0.0101127
0.0101089
0.0101049
0.0101006
0.0100958
0.0100906
0.0100849
0.0100786
0.0100715
0.0100637
0.0100552
0.0100464
0.0100386
0.0100335
0.0100334
0.0100628
0.0102586
0.01082
0.0105041
0.00444333
0.00383314
0.00398184
0.00481393
0.0111806
0.0113646
0.0106749
0.0104013
0.0103167
0.0102721
0.0102403
0.0102175
0.0101987
0.0101743
0.0109345
0.0109363
0.0109387
0.0109418
0.0109457
0.0109499
0.0109542
0.0109581
0.010961
0.0109623
0.0109615
0.0109579
0.010951
0.0109402
0.0109254
0.0109065
0.0108835
0.010857
0.0108272
0.010795
0.010761
0.0107258
0.0106902
0.0106548
0.0106201
0.0105866
0.0105546
0.0105244
0.0104961
0.01047
0.0104458
0.0104237
0.0104034
0.0103848
0.010368
0.0103526
0.0103386
0.010326
0.0103144
0.0103039
0.0102944
0.0102857
0.0102778
0.0102706
0.0102641
0.0102581
0.0102526
0.0102476
0.010243
0.0102388
0.0102349
0.0102314
0.010228
0.010225
0.0102221
0.0102194
0.0102169
0.0102146
0.0102123
0.0102102
0.0102081
0.0102061
0.0102042
0.0102024
0.0102006
0.0101988
0.0101971
0.0101953
0.0101936
0.0101919
0.0101903
0.0101886
0.0101869
0.0101852
0.0101835
0.0101819
0.0101802
0.0101784
0.0101767
0.010175
0.0101732
0.0101715
0.0101697
0.0101679
0.010166
0.0101642
0.0101623
0.0101604
0.0101584
0.0101564
0.0101544
0.0101523
0.0101502
0.010148
0.0101458
0.0101435
0.0101411
0.0101387
0.0101361
0.0101334
0.0101306
0.0101277
0.0101246
0.0101214
0.0101179
0.0101141
0.0101101
0.0101058
0.0101011
0.0100959
0.0100901
0.0100838
0.0100766
0.0100685
0.0100593
0.0100486
0.0100362
0.0100217
0.0100043
0.00998301
0.00995522
0.00991412
0.00984917
0.00974994
0.00953089
0.0087057
0.007054
0.00676975
0.00694608
0.00749255
0.00922963
0.00998199
0.0101264
0.0101709
0.0101914
0.0101938
0.010188
0.0101809
0.0101721
0.0101491
0.0109311
0.0109333
0.0109355
0.0109383
0.0109417
0.0109454
0.0109492
0.0109526
0.010955
0.0109558
0.0109546
0.0109505
0.0109432
0.0109321
0.0109171
0.0108979
0.0108749
0.0108483
0.0108187
0.0107866
0.0107528
0.0107181
0.010683
0.0106482
0.0106142
0.0105815
0.0105502
0.0105208
0.0104934
0.0104681
0.0104447
0.0104232
0.0104035
0.0103856
0.0103692
0.0103542
0.0103406
0.0103282
0.0103168
0.0103065
0.010297
0.0102884
0.0102805
0.0102732
0.0102666
0.0102605
0.0102549
0.0102498
0.0102451
0.0102407
0.0102367
0.010233
0.0102295
0.0102263
0.0102234
0.0102206
0.010218
0.0102155
0.0102131
0.0102109
0.0102088
0.0102067
0.0102048
0.0102029
0.010201
0.0101992
0.0101974
0.0101956
0.0101939
0.0101922
0.0101905
0.0101888
0.0101871
0.0101854
0.0101837
0.0101819
0.0101802
0.0101785
0.0101768
0.010175
0.0101732
0.0101714
0.0101696
0.0101678
0.010166
0.0101641
0.0101622
0.0101602
0.0101583
0.0101563
0.0101542
0.0101521
0.01015
0.0101478
0.0101455
0.0101432
0.0101407
0.0101382
0.0101356
0.0101329
0.01013
0.010127
0.0101239
0.0101205
0.0101169
0.010113
0.0101089
0.0101044
0.0100994
0.010094
0.010088
0.0100813
0.0100738
0.0100652
0.0100553
0.0100438
0.0100302
0.0100139
0.0099937
0.00996786
0.00993301
0.0098826
0.00980447
0.00967495
0.00943416
0.00895744
0.00831913
0.00814485
0.0082736
0.0086333
0.00933122
0.00979474
0.0100025
0.0100966
0.0101402
0.0101582
0.0101636
0.0101637
0.0101586
0.0101323
0.0109271
0.0109296
0.0109318
0.0109345
0.0109379
0.0109417
0.0109455
0.0109489
0.0109514
0.0109523
0.010951
0.0109469
0.0109393
0.0109279
0.0109124
0.0108927
0.0108691
0.0108419
0.0108116
0.010779
0.0107449
0.0107098
0.0106746
0.0106399
0.0106061
0.0105737
0.010543
0.0105142
0.0104875
0.0104628
0.0104401
0.0104193
0.0104004
0.0103831
0.0103673
0.0103529
0.0103397
0.0103277
0.0103167
0.0103067
0.0102975
0.010289
0.0102813
0.0102741
0.0102675
0.0102615
0.0102559
0.0102508
0.010246
0.0102417
0.0102376
0.0102339
0.0102304
0.0102271
0.0102241
0.0102213
0.0102186
0.0102161
0.0102137
0.0102114
0.0102092
0.0102072
0.0102051
0.0102032
0.0102013
0.0101995
0.0101976
0.0101959
0.0101941
0.0101924
0.0101906
0.0101889
0.0101872
0.0101855
0.0101838
0.010182
0.0101803
0.0101786
0.0101768
0.010175
0.0101733
0.0101715
0.0101697
0.0101678
0.010166
0.0101641
0.0101622
0.0101602
0.0101582
0.0101562
0.0101542
0.0101521
0.0101499
0.0101477
0.0101454
0.010143
0.0101406
0.0101381
0.0101354
0.0101327
0.0101298
0.0101268
0.0101236
0.0101202
0.0101165
0.0101127
0.0101085
0.0101039
0.0100989
0.0100934
0.0100874
0.0100806
0.0100729
0.0100642
0.0100542
0.0100425
0.0100287
0.0100119
0.0099911
0.00996456
0.00992943
0.00988099
0.00981173
0.00970924
0.00955032
0.00930072
0.0090021
0.00891172
0.00900587
0.00923312
0.00958387
0.00984234
0.00998897
0.0100699
0.0101142
0.0101368
0.010147
0.0101508
0.0101478
0.0101195
0.0109224
0.0109251
0.0109272
0.01093
0.0109334
0.0109373
0.0109412
0.0109447
0.0109473
0.0109482
0.0109469
0.0109426
0.0109347
0.0109228
0.0109065
0.010886
0.0108615
0.0108333
0.0108021
0.0107687
0.0107339
0.0106983
0.0106629
0.0106282
0.0105946
0.0105627
0.0105326
0.0105046
0.0104787
0.0104549
0.0104332
0.0104133
0.0103953
0.0103788
0.0103638
0.0103502
0.0103377
0.0103263
0.0103158
0.0103062
0.0102974
0.0102892
0.0102817
0.0102747
0.0102683
0.0102623
0.0102568
0.0102517
0.010247
0.0102426
0.0102385
0.0102347
0.0102312
0.0102279
0.0102249
0.010222
0.0102193
0.0102167
0.0102143
0.0102119
0.0102097
0.0102076
0.0102056
0.0102036
0.0102017
0.0101998
0.0101979
0.0101961
0.0101943
0.0101926
0.0101908
0.0101891
0.0101873
0.0101856
0.0101839
0.0101821
0.0101804
0.0101787
0.0101769
0.0101751
0.0101733
0.0101715
0.0101697
0.0101679
0.010166
0.0101641
0.0101622
0.0101602
0.0101582
0.0101562
0.0101541
0.010152
0.0101498
0.0101476
0.0101453
0.010143
0.0101405
0.010138
0.0101353
0.0101326
0.0101297
0.0101266
0.0101234
0.01012
0.0101164
0.0101125
0.0101082
0.0101037
0.0100987
0.0100932
0.0100872
0.0100804
0.0100728
0.0100641
0.0100542
0.0100426
0.010029
0.0100126
0.00999246
0.00996728
0.00993496
0.00989248
0.00983581
0.00975976
0.0096574
0.00952265
0.0093838
0.00934693
0.009416
0.00955738
0.00974143
0.00989252
0.00999395
0.0100589
0.010099
0.0101221
0.0101342
0.0101399
0.0101383
0.0101104
0.0109173
0.0109197
0.0109218
0.0109247
0.0109282
0.0109323
0.0109365
0.0109403
0.0109431
0.0109442
0.0109429
0.0109384
0.01093
0.0109173
0.0109001
0.0108784
0.0108524
0.0108229
0.0107904
0.0107558
0.0107199
0.0106837
0.0106478
0.0106129
0.0105796
0.0105481
0.0105187
0.0104915
0.0104666
0.0104439
0.0104233
0.0104046
0.0103877
0.0103723
0.0103584
0.0103457
0.0103341
0.0103234
0.0103136
0.0103046
0.0102962
0.0102885
0.0102813
0.0102747
0.0102685
0.0102627
0.0102573
0.0102523
0.0102476
0.0102433
0.0102392
0.0102355
0.0102319
0.0102286
0.0102255
0.0102226
0.0102199
0.0102173
0.0102148
0.0102125
0.0102102
0.0102081
0.010206
0.010204
0.010202
0.0102001
0.0101982
0.0101964
0.0101946
0.0101928
0.010191
0.0101893
0.0101875
0.0101858
0.010184
0.0101823
0.0101805
0.0101788
0.010177
0.0101752
0.0101734
0.0101716
0.0101698
0.0101679
0.010166
0.0101641
0.0101622
0.0101603
0.0101583
0.0101562
0.0101542
0.0101521
0.0101499
0.0101477
0.0101454
0.010143
0.0101406
0.010138
0.0101354
0.0101326
0.0101297
0.0101267
0.0101235
0.0101201
0.0101165
0.0101126
0.0101084
0.0101039
0.010099
0.0100936
0.0100877
0.0100811
0.0100737
0.0100653
0.0100557
0.0100447
0.0100317
0.0100164
0.009998
0.0099755
0.00994763
0.00991274
0.00986898
0.00981473
0.0097493
0.00967558
0.00961223
0.00960178
0.00965067
0.00974095
0.0098452
0.00993752
0.0100083
0.0100587
0.0100924
0.0101135
0.0101256
0.010132
0.0101313
0.0101056
0.0109117
0.0109134
0.0109155
0.0109186
0.0109224
0.0109269
0.0109315
0.0109357
0.0109389
0.0109403
0.010939
0.0109342
0.0109252
0.0109115
0.0108929
0.0108695
0.0108418
0.0108103
0.010776
0.0107398
0.0107027
0.0106654
0.0106289
0.0105938
0.0105606
0.0105296
0.010501
0.0104749
0.0104511
0.0104297
0.0104104
0.0103931
0.0103775
0.0103634
0.0103507
0.0103391
0.0103286
0.0103189
0.01031
0.0103017
0.010294
0.0102868
0.0102801
0.0102739
0.010268
0.0102625
0.0102573
0.0102525
0.0102479
0.0102437
0.0102397
0.010236
0.0102325
0.0102292
0.0102261
0.0102232
0.0102204
0.0102178
0.0102153
0.0102129
0.0102107
0.0102085
0.0102064
0.0102043
0.0102024
0.0102004
0.0101985
0.0101967
0.0101949
0.0101931
0.0101913
0.0101895
0.0101877
0.010186
0.0101842
0.0101824
0.0101807
0.0101789
0.0101771
0.0101753
0.0101735
0.0101717
0.0101699
0.010168
0.0101661
0.0101642
0.0101623
0.0101604
0.0101584
0.0101563
0.0101543
0.0101522
0.01015
0.0101478
0.0101455
0.0101432
0.0101407
0.0101382
0.0101356
0.0101329
0.01013
0.010127
0.0101239
0.0101205
0.010117
0.0101132
0.0101091
0.0101047
0.0101
0.0100948
0.0100891
0.0100827
0.0100757
0.0100678
0.0100589
0.0100486
0.0100368
0.0100231
0.0100069
0.00998778
0.00996493
0.00993766
0.00990542
0.00986828
0.0098276
0.00978756
0.00975913
0.00976002
0.00979425
0.00985346
0.00991942
0.00997837
0.0100274
0.0100652
0.0100922
0.0101102
0.0101211
0.0101273
0.0101272
0.0101053
0.0109056
0.0109062
0.0109083
0.0109115
0.0109157
0.0109207
0.0109258
0.0109307
0.0109344
0.0109361
0.0109348
0.0109296
0.0109197
0.0109047
0.0108843
0.0108588
0.0108288
0.010795
0.0107584
0.0107202
0.0106814
0.010643
0.0106058
0.0105704
0.0105373
0.0105069
0.0104793
0.0104543
0.010432
0.0104121
0.0103944
0.0103786
0.0103646
0.0103521
0.0103409
0.0103307
0.0103214
0.0103129
0.010305
0.0102976
0.0102907
0.0102842
0.0102781
0.0102724
0.0102669
0.0102618
0.0102569
0.0102523
0.0102479
0.0102438
0.0102399
0.0102363
0.0102329
0.0102296
0.0102265
0.0102236
0.0102209
0.0102183
0.0102158
0.0102134
0.0102111
0.0102089
0.0102068
0.0102047
0.0102027
0.0102008
0.0101989
0.010197
0.0101951
0.0101933
0.0101915
0.0101897
0.0101879
0.0101862
0.0101844
0.0101826
0.0101809
0.0101791
0.0101773
0.0101755
0.0101737
0.0101719
0.01017
0.0101682
0.0101663
0.0101644
0.0101625
0.0101605
0.0101585
0.0101565
0.0101545
0.0101524
0.0101502
0.010148
0.0101458
0.0101434
0.010141
0.0101386
0.010136
0.0101333
0.0101305
0.0101276
0.0101245
0.0101213
0.0101178
0.0101142
0.0101102
0.010106
0.0101015
0.0100966
0.0100912
0.0100853
0.0100787
0.0100715
0.0100633
0.0100541
0.0100437
0.0100318
0.0100182
0.0100025
0.00998443
0.00996388
0.00994094
0.00991631
0.00989168
0.0098704
0.00985856
0.00986398
0.0098885
0.0099279
0.00997262
0.0100129
0.0100472
0.010075
0.010096
0.0101107
0.0101201
0.0101256
0.0101259
0.0101086
0.0108986
0.0108977
0.0108998
0.0109033
0.010908
0.0109135
0.0109193
0.0109249
0.0109292
0.0109313
0.01093
0.0109243
0.0109133
0.0108965
0.0108739
0.0108457
0.0108128
0.0107761
0.0107368
0.0106963
0.0106556
0.0106158
0.0105778
0.0105422
0.0105095
0.0104798
0.0104534
0.0104299
0.0104092
0.0103911
0.0103753
0.0103614
0.0103492
0.0103385
0.010329
0.0103204
0.0103126
0.0103054
0.0102987
0.0102924
0.0102865
0.0102808
0.0102754
0.0102703
0.0102653
0.0102606
0.0102561
0.0102518
0.0102476
0.0102437
0.01024
0.0102365
0.0102331
0.0102299
0.0102269
0.010224
0.0102213
0.0102187
0.0102162
0.0102138
0.0102115
0.0102093
0.0102072
0.0102051
0.0102031
0.0102011
0.0101992
0.0101973
0.0101954
0.0101936
0.0101918
0.01019
0.0101882
0.0101864
0.0101846
0.0101828
0.0101811
0.0101793
0.0101775
0.0101757
0.0101739
0.010172
0.0101702
0.0101684
0.0101665
0.0101646
0.0101627
0.0101607
0.0101588
0.0101568
0.0101547
0.0101526
0.0101505
0.0101484
0.0101461
0.0101438
0.0101415
0.0101391
0.0101365
0.0101339
0.0101312
0.0101284
0.0101254
0.0101223
0.010119
0.0101155
0.0101118
0.0101078
0.0101035
0.0100989
0.010094
0.0100885
0.0100826
0.0100761
0.0100688
0.0100608
0.0100519
0.0100419
0.0100307
0.0100182
0.0100045
0.00998944
0.00997359
0.00995771
0.00994324
0.00993249
0.00992879
0.00993568
0.00995384
0.0099808
0.0100116
0.0100407
0.0100656
0.0100861
0.0101022
0.0101139
0.0101218
0.0101265
0.0101272
0.0101148
0.0108907
0.0108878
0.0108898
0.0108937
0.0108989
0.010905
0.0109117
0.0109181
0.0109232
0.0109257
0.0109243
0.0109179
0.0109055
0.0108865
0.010861
0.0108296
0.0107932
0.010753
0.0107106
0.0106674
0.0106246
0.0105834
0.0105446
0.010509
0.0104768
0.0104482
0.0104232
0.0104016
0.0103829
0.0103668
0.0103532
0.0103415
0.0103315
0.0103228
0.0103152
0.0103084
0.0103023
0.0102966
0.0102913
0.0102862
0.0102814
0.0102766
0.0102721
0.0102676
0.0102632
0.010259
0.0102549
0.010251
0.0102471
0.0102434
0.0102399
0.0102365
0.0102333
0.0102302
0.0102272
0.0102244
0.0102217
0.0102191
0.0102166
0.0102142
0.010212
0.0102097
0.0102076
0.0102055
0.0102035
0.0102015
0.0101996
0.0101976
0.0101958
0.0101939
0.0101921
0.0101903
0.0101885
0.0101867
0.0101849
0.0101831
0.0101813
0.0101795
0.0101777
0.0101759
0.0101741
0.0101723
0.0101704
0.0101686
0.0101667
0.0101648
0.0101629
0.010161
0.0101591
0.0101571
0.0101551
0.010153
0.0101509
0.0101488
0.0101466
0.0101444
0.0101421
0.0101397
0.0101373
0.0101347
0.0101321
0.0101294
0.0101265
0.0101236
0.0101204
0.0101172
0.0101137
0.01011
0.010106
0.0101018
0.0100973
0.0100924
0.0100871
0.0100814
0.0100751
0.0100683
0.0100608
0.0100527
0.0100438
0.0100342
0.010024
0.0100134
0.0100027
0.00999287
0.0099848
0.00998001
0.00998032
0.00998733
0.0100012
0.0100203
0.010042
0.0100632
0.010082
0.0100976
0.01011
0.0101192
0.0101257
0.0101297
0.0101307
0.0101231
0.0108814
0.010876
0.010878
0.0108824
0.0108881
0.010895
0.0109026
0.01091
0.0109159
0.0109188
0.0109174
0.01091
0.0108958
0.0108741
0.0108452
0.0108098
0.0107693
0.0107251
0.0106791
0.0106329
0.0105879
0.0105453
0.0105059
0.0104705
0.0104391
0.010412
0.0103889
0.0103694
0.010353
0.0103395
0.0103283
0.0103191
0.0103115
0.0103052
0.0102997
0.010295
0.0102907
0.0102867
0.0102829
0.0102792
0.0102755
0.0102718
0.0102682
0.0102645
0.0102608
0.0102571
0.0102535
0.0102499
0.0102464
0.010243
0.0102397
0.0102365
0.0102334
0.0102304
0.0102275
0.0102247
0.0102221
0.0102195
0.0102171
0.0102147
0.0102124
0.0102102
0.010208
0.0102059
0.0102039
0.0102019
0.0101999
0.010198
0.0101961
0.0101943
0.0101924
0.0101906
0.0101888
0.0101869
0.0101851
0.0101833
0.0101816
0.0101798
0.010178
0.0101762
0.0101743
0.0101725
0.0101707
0.0101689
0.010167
0.0101651
0.0101632
0.0101613
0.0101594
0.0101574
0.0101555
0.0101534
0.0101514
0.0101493
0.0101472
0.010145
0.0101428
0.0101405
0.0101381
0.0101357
0.0101332
0.0101306
0.0101279
0.0101251
0.0101222
0.0101191
0.0101159
0.0101125
0.0101089
0.0101051
0.0101011
0.0100968
0.0100922
0.0100872
0.010082
0.0100763
0.0100702
0.0100638
0.0100569
0.0100498
0.0100424
0.0100352
0.0100284
0.0100226
0.0100186
0.0100172
0.0100194
0.010026
0.0100369
0.010051
0.0100667
0.0100823
0.0100965
0.0101086
0.0101184
0.0101259
0.0101312
0.0101346
0.0101359
0.0101326
0.0108703
0.010862
0.010864
0.010869
0.0108755
0.0108831
0.0108916
0.0109
0.0109069
0.0109105
0.0109088
0.0109003
0.0108838
0.0108589
0.0108258
0.0107858
0.0107404
0.0106917
0.0106417
0.0105923
0.010545
0.0105012
0.0104615
0.0104266
0.0103966
0.0103713
0.0103505
0.0103336
0.01032
0.0103093
0.0103009
0.0102946
0.0102897
0.0102859
0.0102828
0.0102803
0.010278
0.0102759
0.0102737
0.0102715
0.0102691
0.0102665
0.0102638
0.010261
0.010258
0.010255
0.0102518
0.0102487
0.0102456
0.0102424
0.0102394
0.0102363
0.0102334
0.0102305
0.0102277
0.010225
0.0102224
0.0102199
0.0102175
0.0102151
0.0102128
0.0102106
0.0102085
0.0102064
0.0102043
0.0102023
0.0102003
0.0101984
0.0101965
0.0101946
0.0101927
0.0101909
0.0101891
0.0101873
0.0101854
0.0101836
0.0101818
0.01018
0.0101782
0.0101764
0.0101746
0.0101728
0.010171
0.0101692
0.0101673
0.0101655
0.0101636
0.0101617
0.0101598
0.0101579
0.0101559
0.0101539
0.0101519
0.0101499
0.0101478
0.0101457
0.0101436
0.0101414
0.0101391
0.0101368
0.0101344
0.010132
0.0101294
0.0101268
0.0101241
0.0101213
0.0101184
0.0101153
0.0101121
0.0101087
0.0101052
0.0101015
0.0100976
0.0100934
0.0100891
0.0100845
0.0100797
0.0100748
0.0100697
0.0100646
0.0100595
0.0100549
0.0100508
0.0100478
0.0100463
0.0100469
0.01005
0.010056
0.0100647
0.0100755
0.0100872
0.0100989
0.0101098
0.0101193
0.0101271
0.0101333
0.0101378
0.0101408
0.0101424
0.0101428
0.0108569
0.0108452
0.0108471
0.0108528
0.0108603
0.010869
0.0108783
0.0108878
0.0108959
0.0109001
0.0108982
0.0108883
0.0108692
0.0108402
0.0108023
0.0107567
0.0107059
0.0106521
0.0105979
0.0105452
0.0104958
0.0104509
0.0104114
0.0103775
0.0103492
0.0103264
0.0103084
0.0102945
0.0102841
0.0102766
0.0102715
0.0102682
0.0102663
0.0102652
0.0102648
0.0102646
0.0102645
0.0102643
0.0102639
0.0102632
0.0102622
0.0102608
0.0102591
0.0102572
0.010255
0.0102526
0.01025
0.0102473
0.0102446
0.0102418
0.010239
0.0102362
0.0102334
0.0102306
0.010228
0.0102253
0.0102228
0.0102203
0.0102179
0.0102156
0.0102133
0.0102111
0.0102089
0.0102068
0.0102047
0.0102027
0.0102007
0.0101988
0.0101969
0.010195
0.0101931
0.0101912
0.0101894
0.0101876
0.0101858
0.0101839
0.0101821
0.0101803
0.0101785
0.0101767
0.0101749
0.0101731
0.0101713
0.0101695
0.0101677
0.0101658
0.010164
0.0101621
0.0101602
0.0101583
0.0101564
0.0101545
0.0101525
0.0101506
0.0101485
0.0101465
0.0101444
0.0101423
0.0101402
0.010138
0.0101358
0.0101335
0.0101311
0.0101287
0.0101262
0.0101237
0.0101211
0.0101183
0.0101155
0.0101126
0.0101096
0.0101064
0.0101032
0.0100998
0.0100963
0.0100927
0.0100891
0.0100855
0.0100819
0.0100784
0.0100752
0.0100724
0.0100704
0.0100692
0.0100694
0.0100711
0.0100746
0.01008
0.0100872
0.0100956
0.0101046
0.0101137
0.0101221
0.0101296
0.010136
0.0101412
0.0101451
0.0101478
0.0101497
0.0101533
0.0108405
0.010825
0.0108268
0.0108334
0.0108419
0.010852
0.0108626
0.0108729
0.0108821
0.0108872
0.0108851
0.0108737
0.0108513
0.0108177
0.010774
0.0107222
0.0106652
0.0106059
0.0105471
0.0104912
0.01044
0.0103946
0.0103556
0.0103234
0.0102976
0.0102778
0.0102631
0.0102527
0.0102459
0.010242
0.0102404
0.0102405
0.0102417
0.0102437
0.010246
0.0102483
0.0102505
0.0102523
0.0102537
0.0102546
0.010255
0.0102549
0.0102543
0.0102532
0.0102518
0.0102501
0.0102481
0.0102459
0.0102435
0.0102411
0.0102385
0.0102359
0.0102333
0.0102307
0.0102282
0.0102256
0.0102231
0.0102207
0.0102183
0.010216
0.0102138
0.0102115
0.0102094
0.0102073
0.0102052
0.0102032
0.0102012
0.0101992
0.0101973
0.0101954
0.0101935
0.0101916
0.0101898
0.0101879
0.0101861
0.0101843
0.0101825
0.0101807
0.0101789
0.0101771
0.0101753
0.0101735
0.0101716
0.0101698
0.010168
0.0101662
0.0101644
0.0101625
0.0101607
0.0101588
0.010157
0.0101551
0.0101532
0.0101513
0.0101493
0.0101474
0.0101454
0.0101434
0.0101414
0.0101393
0.0101372
0.0101351
0.0101329
0.0101307
0.0101285
0.0101262
0.0101239
0.0101215
0.0101191
0.0101166
0.010114
0.0101114
0.0101088
0.0101062
0.0101035
0.0101008
0.0100982
0.0100957
0.0100933
0.0100912
0.0100894
0.0100881
0.0100874
0.0100876
0.0100887
0.0100911
0.0100947
0.0100996
0.0101056
0.0101125
0.0101197
0.0101268
0.0101336
0.0101396
0.0101449
0.0101493
0.0101528
0.0101553
0.0101575
0.0101636
0.0108203
0.0108007
0.0108024
0.0108098
0.0108196
0.0108313
0.0108436
0.010855
0.0108651
0.0108712
0.0108691
0.0108558
0.0108297
0.0107907
0.0107404
0.0106816
0.0106178
0.0105526
0.0104893
0.0104304
0.0103778
0.0103324
0.0102948
0.0102648
0.0102422
0.010226
0.0102152
0.0102088
0.010206
0.010206
0.0102083
0.010212
0.0102166
0.0102217
0.0102268
0.0102318
0.0102363
0.0102402
0.0102434
0.0102459
0.0102477
0.0102488
0.0102493
0.0102492
0.0102486
0.0102475
0.0102461
0.0102444
0.0102424
0.0102403
0.010238
0.0102357
0.0102332
0.0102308
0.0102283
0.0102259
0.0102235
0.0102211
0.0102188
0.0102165
0.0102142
0.010212
0.0102099
0.0102077
0.0102057
0.0102036
0.0102016
0.0101996
0.0101977
0.0101958
0.0101939
0.010192
0.0101901
0.0101883
0.0101864
0.0101846
0.0101828
0.010181
0.0101792
0.0101774
0.0101756
0.0101738
0.010172
0.0101702
0.0101684
0.0101666
0.0101648
0.010163
0.0101612
0.0101594
0.0101576
0.0101557
0.0101539
0.010152
0.0101502
0.0101483
0.0101464
0.0101445
0.0101426
0.0101407
0.0101388
0.0101368
0.0101348
0.0101329
0.0101309
0.0101288
0.0101268
0.0101248
0.0101227
0.0101206
0.0101186
0.0101165
0.0101145
0.0101125
0.0101105
0.0101086
0.0101069
0.0101053
0.0101039
0.0101029
0.0101022
0.010102
0.0101023
0.0101034
0.0101052
0.0101079
0.0101115
0.010116
0.0101212
0.0101269
0.0101328
0.0101386
0.0101441
0.0101492
0.0101536
0.0101574
0.0101606
0.010163
0.0101655
0.0101736
0.0107953
0.0107715
0.0107731
0.0107814
0.0107924
0.0108059
0.0108205
0.0108336
0.0108443
0.0108515
0.0108496
0.0108344
0.0108041
0.0107589
0.0107011
0.0106344
0.0105633
0.0104921
0.0104244
0.0103629
0.0103095
0.0102649
0.0102295
0.0102027
0.010184
0.0101721
0.0101656
0.0101636
0.0101652
0.0101695
0.0101758
0.0101833
0.0101914
0.0101997
0.0102077
0.0102153
0.0102221
0.0102281
0.0102331
0.0102373
0.0102405
0.0102428
0.0102444
0.0102452
0.0102453
0.010245
0.0102441
0.0102429
0.0102413
0.0102395
0.0102375
0.0102354
0.0102332
0.0102309
0.0102285
0.0102262
0.0102238
0.0102215
0.0102192
0.0102169
0.0102147
0.0102125
0.0102103
0.0102082
0.0102061
0.0102041
0.0102021
0.0102001
0.0101981
0.0101962
0.0101943
0.0101924
0.0101905
0.0101886
0.0101868
0.010185
0.0101832
0.0101813
0.0101795
0.0101777
0.010176
0.0101742
0.0101724
0.0101706
0.0101688
0.0101671
0.0101653
0.0101635
0.0101617
0.01016
0.0101582
0.0101564
0.0101546
0.0101528
0.0101511
0.0101493
0.0101475
0.0101457
0.0101439
0.0101421
0.0101404
0.0101386
0.0101368
0.010135
0.0101333
0.0101315
0.0101298
0.010128
0.0101263
0.0101247
0.010123
0.0101215
0.01012
0.0101186
0.0101173
0.0101161
0.0101151
0.0101143
0.0101138
0.0101135
0.0101137
0.0101143
0.0101154
0.010117
0.0101193
0.0101223
0.0101258
0.0101299
0.0101345
0.0101394
0.0101444
0.0101493
0.0101539
0.0101582
0.010162
0.0101655
0.0101684
0.0101707
0.0101734
0.0101831
0.0107645
0.0107363
0.0107379
0.010747
0.0107595
0.010775
0.010792
0.0108078
0.0108195
0.0108275
0.010826
0.010809
0.0107741
0.0107219
0.0106557
0.0105805
0.0105017
0.0104244
0.0103526
0.0102893
0.0102359
0.0101931
0.0101607
0.0101381
0.010124
0.0101169
0.0101152
0.010118
0.0101244
0.0101332
0.0101437
0.010155
0.0101667
0.0101782
0.0101891
0.0101992
0.0102084
0.0102164
0.0102232
0.0102289
0.0102335
0.010237
0.0102396
0.0102413
0.0102422
0.0102425
0.0102422
0.0102414
0.0102403
0.0102388
0.0102371
0.0102351
0.0102331
0.0102309
0.0102287
0.0102265
0.0102242
0.0102219
0.0102196
0.0102174
0.0102152
0.010213
0.0102108
0.0102087
0.0102066
0.0102045
0.0102025
0.0102005
0.0101985
0.0101966
0.0101947
0.0101928
0.0101909
0.010189
0.0101872
0.0101853
0.0101835
0.0101817
0.0101799
0.0101781
0.0101763
0.0101745
0.0101728
0.010171
0.0101693
0.0101675
0.0101658
0.010164
0.0101623
0.0101605
0.0101588
0.0101571
0.0101554
0.0101537
0.010152
0.0101503
0.0101486
0.0101469
0.0101453
0.0101436
0.010142
0.0101404
0.0101388
0.0101372
0.0101357
0.0101342
0.0101327
0.0101313
0.0101299
0.0101287
0.0101274
0.0101263
0.0101253
0.0101244
0.0101237
0.0101231
0.0101227
0.0101226
0.0101228
0.0101232
0.010124
0.0101252
0.0101269
0.010129
0.0101315
0.0101346
0.0101381
0.0101419
0.0101461
0.0101504
0.0101547
0.0101589
0.0101629
0.0101667
0.0101701
0.0101733
0.0101761
0.0101783
0.0101812
0.010192
0.0107266
0.0106943
0.0106958
0.0107057
0.0107196
0.0107372
0.0107572
0.0107763
0.0107903
0.0107985
0.0107978
0.0107793
0.0107394
0.0106795
0.0106041
0.0105196
0.0104329
0.0103497
0.0102746
0.0102103
0.0101581
0.0101182
0.0100899
0.0100722
0.0100635
0.0100617
0.0100653
0.0100732
0.0100845
0.0100979
0.0101126
0.0101279
0.010143
0.0101577
0.0101714
0.010184
0.0101953
0.0102053
0.0102138
0.010221
0.0102269
0.0102315
0.0102351
0.0102376
0.0102392
0.0102401
0.0102404
0.01024
0.0102392
0.0102381
0.0102366
0.0102349
0.010233
0.010231
0.0102289
0.0102267
0.0102245
0.0102223
0.0102201
0.0102178
0.0102156
0.0102134
0.0102113
0.0102092
0.0102071
0.010205
0.010203
0.010201
0.010199
0.010197
0.0101951
0.0101932
0.0101913
0.0101894
0.0101875
0.0101857
0.0101839
0.0101821
0.0101803
0.0101785
0.0101767
0.0101749
0.0101732
0.0101714
0.0101697
0.0101679
0.0101662
0.0101645
0.0101628
0.0101611
0.0101595
0.0101578
0.0101561
0.0101545
0.0101529
0.0101513
0.0101497
0.0101481
0.0101466
0.0101451
0.0101436
0.0101421
0.0101407
0.0101394
0.0101381
0.0101368
0.0101356
0.0101345
0.0101335
0.0101325
0.0101317
0.010131
0.0101304
0.01013
0.0101297
0.0101297
0.0101298
0.0101303
0.010131
0.010132
0.0101333
0.010135
0.010137
0.0101394
0.0101422
0.0101453
0.0101487
0.0101523
0.0101562
0.01016
0.0101639
0.0101677
0.0101712
0.0101746
0.0101778
0.0101807
0.0101834
0.0101856
0.0101886
0.0102003
0.0106805
0.0106445
0.0106459
0.0106564
0.0106715
0.0106914
0.0107146
0.0107377
0.0107556
0.0107645
0.0107646
0.0107449
0.0107001
0.0106318
0.0105463
0.0104521
0.0103574
0.0102689
0.0101913
0.0101272
0.0100774
0.0100416
0.0100185
0.0100067
0.0100038
0.0100077
0.0100168
0.0100302
0.0100465
0.0100645
0.0100834
0.0101024
0.010121
0.0101386
0.010155
0.0101699
0.0101833
0.010195
0.0102051
0.0102137
0.0102207
0.0102264
0.0102309
0.0102342
0.0102365
0.010238
0.0102387
0.0102387
0.0102383
0.0102374
0.0102362
0.0102347
0.010233
0.0102311
0.0102291
0.010227
0.0102249
0.0102227
0.0102205
0.0102183
0.0102161
0.0102139
0.0102118
0.0102096
0.0102075
0.0102055
0.0102034
0.0102014
0.0101994
0.0101974
0.0101955
0.0101935
0.0101916
0.0101898
0.0101879
0.010186
0.0101842
0.0101824
0.0101806
0.0101788
0.0101771
0.0101753
0.0101736
0.0101718
0.0101701
0.0101684
0.0101667
0.010165
0.0101634
0.0101617
0.0101601
0.0101585
0.0101569
0.0101553
0.0101538
0.0101523
0.0101508
0.0101493
0.0101479
0.0101465
0.0101452
0.0101439
0.0101427
0.0101415
0.0101404
0.0101394
0.0101384
0.0101376
0.0101368
0.0101362
0.0101357
0.0101354
0.0101352
0.0101352
0.0101354
0.0101358
0.0101364
0.0101373
0.0101384
0.0101398
0.0101416
0.0101436
0.0101459
0.0101486
0.0101515
0.0101546
0.010158
0.0101615
0.0101651
0.0101686
0.0101722
0.0101756
0.0101789
0.010182
0.0101849
0.0101877
0.0101903
0.0101925
0.0101957
0.0102079
0.0106248
0.0105861
0.0105872
0.010598
0.0106141
0.010636
0.0106627
0.0106907
0.0107138
0.0107254
0.0107261
0.010706
0.0106562
0.0105789
0.0104827
0.0103784
0.0102759
0.0101829
0.010104
0.0100415
0.00999553
0.00996502
0.00994824
0.00994307
0.00994644
0.00995618
0.00997118
0.00999
0.0100112
0.0100338
0.0100567
0.0100792
0.0101009
0.0101213
0.0101401
0.0101572
0.0101724
0.0101858
0.0101973
0.0102071
0.0102153
0.0102219
0.0102271
0.0102311
0.010234
0.010236
0.0102371
0.0102376
0.0102375
0.0102368
0.0102358
0.0102345
0.0102329
0.0102312
0.0102293
0.0102273
0.0102252
0.010223
0.0102209
0.0102187
0.0102165
0.0102144
0.0102122
0.0102101
0.010208
0.0102059
0.0102038
0.0102018
0.0101998
0.0101978
0.0101959
0.0101939
0.010192
0.0101901
0.0101883
0.0101864
0.0101846
0.0101828
0.010181
0.0101792
0.0101774
0.0101757
0.0101739
0.0101722
0.0101705
0.0101688
0.0101672
0.0101655
0.0101639
0.0101623
0.0101607
0.0101592
0.0101576
0.0101561
0.0101547
0.0101532
0.0101518
0.0101505
0.0101492
0.0101479
0.0101467
0.0101456
0.0101445
0.0101435
0.0101426
0.0101418
0.0101411
0.0101405
0.0101401
0.0101397
0.0101395
0.0101395
0.0101397
0.01014
0.0101406
0.0101414
0.0101424
0.0101436
0.0101451
0.0101469
0.010149
0.0101513
0.0101538
0.0101566
0.0101596
0.0101628
0.0101661
0.0101695
0.0101729
0.0101763
0.0101796
0.0101828
0.0101858
0.0101887
0.0101915
0.0101943
0.0101968
0.010199
0.0102022
0.0102149
0.0105585
0.0105183
0.0105191
0.0105297
0.0105461
0.0105698
0.0106002
0.0106338
0.0106638
0.0106809
0.0106823
0.0106627
0.0106084
0.0105216
0.0104139
0.0102992
0.0101895
0.010093
0.0100143
0.00995494
0.00991427
0.00989036
0.00988077
0.00988265
0.00989267
0.00990858
0.00992942
0.00995355
0.00997955
0.0100063
0.0100329
0.0100587
0.0100832
0.0101061
0.0101271
0.010146
0.0101629
0.0101777
0.0101905
0.0102014
0.0102104
0.0102179
0.0102238
0.0102284
0.0102319
0.0102343
0.0102358
0.0102366
0.0102367
0.0102364
0.0102355
0.0102344
0.0102329
0.0102313
0.0102295
0.0102275
0.0102255
0.0102234
0.0102213
0.0102191
0.010217
0.0102148
0.0102127
0.0102105
0.0102084
0.0102063
0.0102043
0.0102022
0.0102002
0.0101982
0.0101962
0.0101943
0.0101924
0.0101905
0.0101886
0.0101867
0.0101849
0.0101831
0.0101813
0.0101795
0.0101778
0.010176
0.0101743
0.0101726
0.0101709
0.0101693
0.0101676
0.010166
0.0101644
0.0101629
0.0101613
0.0101598
0.0101584
0.0101569
0.0101555
0.0101542
0.0101529
0.0101516
0.0101504
0.0101493
0.0101482
0.0101472
0.0101463
0.0101455
0.0101448
0.0101442
0.0101437
0.0101433
0.0101431
0.010143
0.0101431
0.0101434
0.0101438
0.0101445
0.0101454
0.0101465
0.0101478
0.0101494
0.0101512
0.0101532
0.0101555
0.0101581
0.0101608
0.0101637
0.0101668
0.01017
0.0101733
0.0101766
0.0101799
0.0101831
0.0101863
0.0101893
0.0101922
0.0101949
0.0101976
0.0102003
0.0102028
0.010205
0.0102083
0.0102212
0.0104809
0.0104411
0.0104412
0.0104508
0.0104666
0.0104914
0.0105253
0.0105653
0.0106041
0.0106299
0.0106343
0.0106158
0.0105576
0.010461