/*--------------------------------*- C++ -*----------------------------------*\
  =========                 |
  \\      /  F ield         | OpenFOAM: The Open Source CFD Toolbox
   \\    /   O peration     | Website:  https://openfoam.org
    \\  /    A nd           | Version:  12
     \\/     M anipulation  |
\*---------------------------------------------------------------------------*/
FoamFile
{
    format      ascii;
    class       surfaceScalarField;
    location    "30";
    object      phi;
}
// * * * * * * * * * * * * * * * * * * * * * * * * * * * * * * * * * * * * * //

dimensions      [0 3 -1 0 0 0 0];

internalField   nonuniform List<scalar> 
8788
(
-2.19521e-09
2.19526e-09
5.39941e-08
-5.61893e-08
2.06333e-07
-1.52338e-07
4.92178e-07
-2.85846e-07
9.46839e-07
-4.5466e-07
1.60102e-06
-6.54184e-07
2.47875e-06
-8.77728e-07
3.59526e-06
-1.11651e-06
4.95507e-06
-1.35981e-06
6.5506e-06
-1.59554e-06
8.36162e-06
-1.81101e-06
1.03557e-05
-1.99404e-06
1.24896e-05
-2.13397e-06
1.47123e-05
-2.22265e-06
1.69674e-05
-2.25511e-06
1.91972e-05
-2.22986e-06
2.13461e-05
-2.14882e-06
2.3363e-05
-2.01693e-06
2.52045e-05
-1.84145e-06
2.68357e-05
-1.63123e-06
2.82316e-05
-1.39594e-06
2.9377e-05
-1.14533e-06
3.02656e-05
-8.88691e-07
3.09e-05
-6.34375e-07
3.12896e-05
-3.89528e-07
3.14494e-05
-1.59811e-07
3.13984e-05
5.09546e-08
3.1158e-05
2.40396e-07
3.07509e-05
4.07099e-07
3.02005e-05
5.50438e-07
2.95301e-05
6.70394e-07
2.87626e-05
7.6752e-07
2.79197e-05
8.42864e-07
2.70218e-05
8.97859e-07
2.60876e-05
9.34222e-07
2.51338e-05
9.53858e-07
2.4175e-05
9.58771e-07
2.3224e-05
9.50993e-07
2.22915e-05
9.3252e-07
2.13862e-05
9.05262e-07
2.05152e-05
8.71009e-07
1.96838e-05
8.31399e-07
1.88959e-05
7.87909e-07
1.81541e-05
7.41839e-07
1.74597e-05
6.94319e-07
1.68134e-05
6.46306e-07
1.62148e-05
5.986e-07
1.5663e-05
5.5185e-07
1.51564e-05
5.06568e-07
1.46933e-05
4.63148e-07
1.42714e-05
4.21874e-07
1.38884e-05
3.82942e-07
1.3542e-05
3.46468e-07
1.32295e-05
3.12504e-07
1.29484e-05
2.81048e-07
1.26964e-05
2.52056e-07
1.24709e-05
2.25454e-07
1.22698e-05
2.01141e-07
1.20908e-05
1.78997e-07
1.19319e-05
1.58894e-07
1.17912e-05
1.40694e-07
1.16669e-05
1.24257e-07
1.15575e-05
1.09443e-07
1.14614e-05
9.61157e-08
1.13772e-05
8.4141e-08
1.13038e-05
7.33916e-08
1.12401e-05
6.37464e-08
1.1185e-05
5.50913e-08
1.11377e-05
4.73191e-08
1.10974e-05
4.03302e-08
1.10633e-05
3.40314e-08
1.1035e-05
2.83368e-08
1.10118e-05
2.31663e-08
1.09934e-05
1.84459e-08
1.09793e-05
1.41069e-08
1.09692e-05
1.00854e-08
1.09629e-05
6.32218e-09
1.09601e-05
2.76239e-09
1.09607e-05
-6.43274e-10
1.09647e-05
-3.94403e-09
1.09719e-05
-7.18947e-09
1.09823e-05
-1.04263e-08
1.0996e-05
-1.37011e-08
1.10131e-05
-1.70606e-08
1.10336e-05
-2.05525e-08
1.10578e-05
-2.42261e-08
1.1086e-05
-2.81331e-08
1.11183e-05
-3.23285e-08
1.11552e-05
-3.68715e-08
1.1197e-05
-4.18264e-08
1.12443e-05
-4.72641e-08
1.12975e-05
-5.32631e-08
1.13574e-05
-5.99114e-08
1.14247e-05
-6.73082e-08
1.15003e-05
-7.55661e-08
1.15851e-05
-8.48139e-08
1.16803e-05
-9.52e-08
1.17872e-05
-1.06896e-07
1.19073e-05
-1.20101e-07
1.20424e-05
-1.35048e-07
1.21944e-05
-1.52013e-07
1.23657e-05
-1.71319e-07
1.25591e-05
-1.93353e-07
1.27776e-05
-2.18575e-07
1.30252e-05
-2.47541e-07
1.33061e-05
-2.80923e-07
1.36256e-05
-3.19539e-07
1.399e-05
-3.64392e-07
1.44067e-05
-4.16719e-07
1.48848e-05
-4.78059e-07
1.54351e-05
-5.50334e-07
1.60711e-05
-6.35964e-07
1.68091e-05
-7.38005e-07
1.76694e-05
-8.60331e-07
1.86773e-05
-1.00785e-06
1.98641e-05
-1.18677e-06
2.12689e-05
-1.40486e-06
2.29407e-05
-1.67178e-06
2.49407e-05
-1.99999e-06
2.73522e-05
-2.41153e-06
3.03158e-05
-2.96354e-06
3.41121e-05
-3.7963e-06
3.92917e-05
-5.17964e-06
4.73187e-05
-8.02701e-06
6.54781e-05
-1.81594e-05
0.000127944
-6.24658e-05
6.83182e-05
-0.000161586
1.34791e-05
-0.00021363
-4.39361e-05
-0.000218722
-0.000108716
-0.000169402
-4.35598e-05
-6.51559e-05
-2.44857e-05
-1.90741e-05
-1.63121e-05
-8.17362e-06
-1.13256e-05
-4.9865e-06
-7.87249e-06
-3.45314e-06
-5.31566e-06
-2.55683e-06
-3.34905e-06
-1.96662e-06
-1.83576e-06
-1.51329e-06
-7.0764e-07
-1.12812e-06
-7.0764e-07
4.55356e-08
-4.33403e-08
1.55928e-07
-1.66582e-07
3.79079e-07
-3.75489e-07
7.60669e-07
-6.67435e-07
1.34266e-06
-1.03665e-06
2.16129e-06
-1.47281e-06
3.24459e-06
-1.96102e-06
4.60993e-06
-2.48185e-06
6.2619e-06
-3.01178e-06
8.19074e-06
-3.52438e-06
1.03719e-05
-3.99215e-06
1.27666e-05
-4.38875e-06
1.53239e-05
-4.69129e-06
1.79836e-05
-4.88237e-06
2.068e-05
-4.9515e-06
2.33458e-05
-4.89567e-06
2.59162e-05
-4.71917e-06
2.83319e-05
-4.43268e-06
3.05423e-05
-4.05183e-06
3.25067e-05
-3.5956e-06
3.41954e-05
-3.08466e-06
3.55899e-05
-2.53989e-06
3.66824e-05
-1.98116e-06
3.74744e-05
-1.4264e-06
3.79759e-05
-8.90951e-07
3.82032e-05
-3.87095e-07
3.81777e-05
7.63735e-08
3.79241e-05
4.94009e-07
3.74686e-05
8.62603e-07
3.68385e-05
1.18053e-06
3.60613e-05
1.44758e-06
3.5164e-05
1.66484e-06
3.41724e-05
1.83444e-06
3.31109e-05
1.95938e-06
3.20018e-05
2.04332e-06
3.08654e-05
2.09031e-06
2.97195e-05
2.10468e-06
2.85796e-05
2.09081e-06
2.74591e-05
2.05306e-06
2.63688e-05
1.9956e-06
2.53174e-05
1.92235e-06
2.43119e-05
1.83692e-06
2.33572e-05
1.74259e-06
2.24568e-05
1.64224e-06
2.16127e-05
1.53839e-06
2.08259e-05
1.43319e-06
2.0096e-05
1.32842e-06
1.94223e-05
1.22555e-06
1.88032e-05
1.12576e-06
1.82364e-05
1.02993e-06
1.77195e-05
9.38718e-07
1.72499e-05
8.52586e-07
1.68245e-05
7.7181e-07
1.64405e-05
6.96522e-07
1.60948e-05
6.26736e-07
1.57845e-05
5.62369e-07
1.55067e-05
5.03265e-07
1.52586e-05
4.4921e-07
1.50377e-05
3.9995e-07
1.48414e-05
3.55203e-07
1.46674e-05
3.1467e-07
1.45136e-05
2.78046e-07
1.4378e-05
2.45023e-07
1.42589e-05
2.153e-07
1.41544e-05
1.88582e-07
1.40632e-05
1.64588e-07
1.39839e-05
1.43051e-07
1.39153e-05
1.23718e-07
1.38563e-05
1.06351e-07
1.38059e-05
9.07289e-08
1.37632e-05
7.66462e-08
1.37277e-05
6.39112e-08
1.36985e-05
5.23463e-08
1.36751e-05
4.17871e-08
1.36572e-05
3.20808e-08
1.36442e-05
2.30856e-08
1.36358e-05
1.46695e-08
1.36319e-05
6.70997e-09
1.36321e-05
-9.05715e-10
1.36365e-05
-8.28535e-09
1.36448e-05
-1.55364e-08
1.36572e-05
-2.27644e-08
1.36735e-05
-3.00732e-08
1.3694e-05
-3.75668e-08
1.37188e-05
-4.53513e-08
1.37481e-05
-5.35362e-08
1.37823e-05
-6.22366e-08
1.38215e-05
-7.15744e-08
1.38663e-05
-8.1681e-08
1.39172e-05
-9.26992e-08
1.39747e-05
-1.04786e-07
1.40396e-05
-1.18114e-07
1.41125e-05
-1.3288e-07
1.41945e-05
-1.49302e-07
1.42866e-05
-1.6763e-07
1.43899e-05
-1.88147e-07
1.45059e-05
-2.11182e-07
1.46361e-05
-2.37112e-07
1.47824e-05
-2.66376e-07
1.49468e-05
-2.9949e-07
1.51319e-05
-3.37057e-07
1.53403e-05
-3.79789e-07
1.55755e-05
-4.28536e-07
1.58413e-05
-4.8431e-07
1.6142e-05
-5.48328e-07
1.64832e-05
-6.22063e-07
1.6871e-05
-7.0731e-07
1.73128e-05
-8.06265e-07
1.78178e-05
-9.21643e-07
1.83965e-05
-1.05682e-06
1.90622e-05
-1.21605e-06
1.9831e-05
-1.40469e-06
2.07226e-05
-1.62963e-06
2.1762e-05
-1.89976e-06
2.2981e-05
-2.22684e-06
2.44209e-05
-2.62668e-06
2.61374e-05
-3.12138e-06
2.8209e-05
-3.74339e-06
3.07536e-05
-4.54451e-06
3.39592e-05
-5.61718e-06
3.81403e-05
-7.14466e-06
4.38472e-05
-9.50312e-06
5.21425e-05
-1.3475e-05
6.50673e-05
-2.09517e-05
8.40948e-05
-3.71869e-05
9.48725e-05
-7.32434e-05
6.25182e-05
-0.000129232
1.39469e-05
-0.000165059
-3.6223e-05
-0.000168552
-7.06224e-05
-0.000135003
-5.90225e-05
-7.67558e-05
-3.92348e-05
-3.88618e-05
-2.58793e-05
-2.15292e-05
-1.74399e-05
-1.34259e-05
-1.17943e-05
-9.09867e-06
-7.8174e-06
-6.53376e-06
-4.92008e-06
-4.86394e-06
-2.77215e-06
-3.66122e-06
-1.19015e-06
-2.71012e-06
-1.89779e-06
8.84963e-08
-1.31837e-07
2.483e-07
-3.26386e-07
5.34168e-07
-6.61357e-07
9.98533e-07
-1.1318e-06
1.68953e-06
-1.72766e-06
2.64866e-06
-2.43194e-06
3.90791e-06
-3.22028e-06
5.48693e-06
-4.06087e-06
7.39054e-06
-4.91538e-06
9.60707e-06
-5.74091e-06
1.21079e-05
-6.49298e-06
1.48484e-05
-7.12919e-06
1.777e-05
-7.61297e-06
2.08044e-05
-7.91675e-06
2.38771e-05
-8.02421e-06
2.69126e-05
-7.93114e-06
2.98384e-05
-7.64495e-06
3.25888e-05
-7.18308e-06
3.51077e-05
-6.57073e-06
3.73503e-05
-5.83823e-06
3.9284e-05
-5.0184e-06
4.08885e-05
-4.1443e-06
4.21546e-05
-3.24729e-06
4.30838e-05
-2.35565e-06
4.36865e-05
-1.49358e-06
4.398e-05
-6.80608e-07
4.39875e-05
6.88769e-08
4.37358e-05
7.45692e-07
4.32539e-05
1.34452e-06
4.25719e-05
1.86252e-06
4.17203e-05
2.29913e-06
4.07293e-05
2.65586e-06
3.96278e-05
2.93597e-06
3.84431e-05
3.14408e-06
3.72005e-05
3.28588e-06
3.59231e-05
3.36776e-06
3.46312e-05
3.39656e-06
3.33427e-05
3.37926e-06
3.2073e-05
3.3228e-06
3.08347e-05
3.23389e-06
2.96382e-05
3.11883e-06
2.84917e-05
2.98349e-06
2.74011e-05
2.83315e-06
2.63708e-05
2.67253e-06
2.54035e-05
2.50575e-06
2.45003e-05
2.33634e-06
2.36615e-05
2.16725e-06
2.28861e-05
2.00091e-06
2.21726e-05
1.83926e-06
2.15187e-05
1.68381e-06
2.09218e-05
1.53566e-06
2.03788e-05
1.3956e-06
1.98865e-05
1.26411e-06
1.94415e-05
1.14144e-06
1.90406e-05
1.02763e-06
1.86804e-05
9.22583e-07
1.83576e-05
8.26052e-07
1.80692e-05
7.37708e-07
1.7812e-05
6.57151e-07
1.75832e-05
5.83931e-07
1.73803e-05
5.17572e-07
1.72008e-05
4.57581e-07
1.70423e-05
4.03463e-07
1.69029e-05
3.54729e-07
1.67806e-05
3.10905e-07
1.66736e-05
2.71532e-07
1.65805e-05
2.36177e-07
1.64998e-05
2.04428e-07
1.64303e-05
1.75898e-07
1.63708e-05
1.50228e-07
1.63203e-05
1.2708e-07
1.62781e-05
1.06144e-07
1.62433e-05
8.71285e-08
1.62153e-05
6.97655e-08
1.61936e-05
5.38056e-08
1.61777e-05
3.9017e-08
1.61672e-05
2.51839e-08
1.61618e-05
1.21051e-08
1.61613e-05
-4.06676e-10
1.61655e-05
-1.25264e-08
1.61744e-05
-2.44265e-08
1.61879e-05
-3.62804e-08
1.62061e-05
-4.82577e-08
1.62291e-05
-6.05283e-08
1.6257e-05
-7.32652e-08
1.62901e-05
-8.6647e-08
1.63287e-05
-1.00861e-07
1.63732e-05
-1.16105e-07
1.64242e-05
-1.32592e-07
1.6482e-05
-1.50555e-07
1.65475e-05
-1.70246e-07
1.66213e-05
-1.91948e-07
1.67044e-05
-2.15975e-07
1.67978e-05
-2.42682e-07
1.69026e-05
-2.72469e-07
1.70203e-05
-3.05794e-07
1.71523e-05
-3.43185e-07
1.73004e-05
-3.85247e-07
1.74667e-05
-4.32686e-07
1.76535e-05
-4.86324e-07
1.78636e-05
-5.47125e-07
1.81001e-05
-6.16228e-07
1.83665e-05
-6.94982e-07
1.86672e-05
-7.84996e-07
1.90071e-05
-8.88202e-07
1.93919e-05
-1.00693e-06
1.98286e-05
-1.14402e-06
2.03253e-05
-1.30294e-06
2.08917e-05
-1.48797e-06
2.15393e-05
-1.70445e-06
2.22823e-05
-1.95909e-06
2.3138e-05
-2.26041e-06
2.41278e-05
-2.61941e-06
2.52786e-05
-3.05053e-06
2.66249e-05
-3.57311e-06
2.8212e-05
-4.21383e-06
3.01015e-05
-5.0109e-06
3.23797e-05
-6.02155e-06
3.51714e-05
-7.33627e-06
3.86609e-05
-9.10661e-06
4.31148e-05
-1.15986e-05
4.88999e-05
-1.52882e-05
5.64565e-05
-2.10317e-05
6.59173e-05
-3.04125e-05
7.50422e-05
-4.63118e-05
7.41778e-05
-7.23791e-05
5.1198e-05
-0.000106252
1.50754e-05
-0.000128936
-2.21109e-05
-0.000131366
-4.6518e-05
-0.000110596
-4.74534e-05
-7.58204e-05
-3.78671e-05
-4.84481e-05
-2.79096e-05
-3.14866e-05
-1.99902e-05
-2.13453e-05
-1.40086e-05
-1.50803e-05
-9.51315e-06
-1.10292e-05
-6.11469e-06
-8.2624e-06
-3.52551e-06
-6.2504e-06
-1.54064e-06
-4.69499e-06
-3.43842e-06
1.17789e-07
-2.49626e-07
3.1218e-07
-5.20777e-07
6.43481e-07
-9.92658e-07
1.17045e-06
-1.65877e-06
1.9474e-06
-2.50461e-06
3.02138e-06
-3.50591e-06
4.42876e-06
-4.62766e-06
6.19193e-06
-5.82404e-06
8.3163e-06
-7.03976e-06
1.07885e-05
-8.21307e-06
1.35756e-05
-9.2801e-06
1.66267e-05
-1.01803e-05
1.98753e-05
-1.08616e-05
2.32443e-05
-1.12857e-05
2.66502e-05
-1.14301e-05
3.00093e-05
-1.12903e-05
3.32421e-05
-1.08777e-05
3.62773e-05
-1.02183e-05
3.90547e-05
-9.34818e-06
4.1527e-05
-8.31056e-06
4.36603e-05
-7.15162e-06
4.54335e-05
-5.91753e-06
4.68381e-05
-4.65187e-06
4.78762e-05
-3.39374e-06
4.85591e-05
-2.17657e-06
4.89059e-05
-1.02735e-06
4.89411e-05
3.37122e-08
4.86933e-05
9.93414e-07
4.81937e-05
1.84415e-06
4.74746e-05
2.58167e-06
4.65686e-05
3.20503e-06
4.55083e-05
3.71616e-06
4.43249e-05
4.11941e-06
4.30479e-05
4.42111e-06
4.17047e-05
4.62905e-06
4.03204e-05
4.75208e-06
3.89173e-05
4.79967e-06
3.7515e-05
4.78154e-06
3.61304e-05
4.7074e-06
3.47776e-05
4.58665e-06
3.34683e-05
4.42818e-06
3.22115e-05
4.24025e-06
3.10143e-05
4.03039e-06
2.98815e-05
3.80528e-06
2.88165e-05
3.57081e-06
2.78208e-05
3.33204e-06
2.68948e-05
3.09321e-06
2.60379e-05
2.85784e-06
2.52484e-05
2.62875e-06
2.45241e-05
2.40813e-06
2.38621e-05
2.19762e-06
2.32593e-05
1.99837e-06
2.27123e-05
1.81112e-06
2.22175e-05
1.63627e-06
2.17712e-05
1.47393e-06
2.13698e-05
1.32395e-06
2.10098e-05
1.18605e-06
2.06878e-05
1.05975e-06
2.04004e-05
9.44522e-07
2.01446e-05
8.39726e-07
1.99175e-05
7.44699e-07
1.97163e-05
6.58747e-07
1.95386e-05
5.81173e-07
1.93821e-05
5.11286e-07
1.92446e-05
4.48412e-07
1.91242e-05
3.91903e-07
1.90192e-05
3.41141e-07
1.89281e-05
2.9554e-07
1.88495e-05
2.5455e-07
1.8782e-05
2.17658e-07
1.87247e-05
1.84385e-07
1.86766e-05
1.54284e-07
1.86368e-05
1.26943e-07
1.86046e-05
1.01977e-07
1.85793e-05
7.90305e-08
1.85606e-05
5.77726e-08
1.85479e-05
3.78947e-08
1.85409e-05
1.91085e-08
1.85393e-05
1.1439e-09
1.8543e-05
-1.6249e-08
1.85519e-05
-3.33149e-08
1.85659e-05
-5.03003e-08
1.85851e-05
-6.74472e-08
1.86096e-05
-8.49976e-08
1.86395e-05
-1.03198e-07
1.86752e-05
-1.22301e-07
1.87169e-05
-1.42573e-07
1.87651e-05
-1.64295e-07
1.88203e-05
-1.87769e-07
1.8883e-05
-2.13322e-07
1.89541e-05
-2.41311e-07
1.90343e-05
-2.72134e-07
1.91245e-05
-3.06231e-07
1.9226e-05
-3.44102e-07
1.93398e-05
-3.86306e-07
1.94675e-05
-4.33486e-07
1.96107e-05
-4.86375e-07
1.97713e-05
-5.45817e-07
1.99514e-05
-6.12793e-07
2.01535e-05
-6.88441e-07
2.03804e-05
-7.74096e-07
2.06355e-05
-8.71326e-07
2.09226e-05
-9.81988e-07
2.12458e-05
-1.10829e-06
2.16105e-05
-1.25287e-06
2.20225e-05
-1.41891e-06
2.24887e-05
-1.61025e-06
2.30174e-05
-1.83162e-06
2.36182e-05
-2.08879e-06
2.43027e-05
-2.38896e-06
2.50848e-05
-2.74116e-06
2.59812e-05
-3.15685e-06
2.70126e-05
-3.65082e-06
2.82046e-05
-4.24245e-06
2.95892e-05
-4.95772e-06
3.12076e-05
-5.8323e-06
3.31134e-05
-6.91664e-06
3.53763e-05
-8.28448e-06
3.80872e-05
-1.00472e-05
4.13583e-05
-1.23778e-05
4.53103e-05
-1.55505e-05
5.00212e-05
-1.9999e-05
5.53821e-05
-2.63926e-05
6.06886e-05
-3.5719e-05
6.36395e-05
-4.92626e-05
5.91272e-05
-6.78668e-05
4.18195e-05
-8.8944e-05
1.60358e-05
-0.000103153
-1.04961e-05
-0.000104834
-2.88868e-05
-9.2205e-05
-3.37399e-05
-7.09672e-05
-3.06134e-05
-5.15747e-05
-2.49265e-05
-3.71735e-05
-1.91683e-05
-2.71036e-05
-1.41331e-05
-2.01154e-05
-9.96537e-06
-1.51969e-05
-6.59363e-06
-1.16341e-05
-3.891e-06
-8.95303e-06
-1.73049e-06
-6.8555e-06
-5.16892e-06
1.28269e-07
-3.77895e-07
3.36191e-07
-7.28698e-07
6.8991e-07
-1.34638e-06
1.25487e-06
-2.22373e-06
2.09215e-06
-3.34188e-06
3.25507e-06
-4.66883e-06
4.78522e-06
-6.15782e-06
6.7084e-06
-7.74722e-06
9.03108e-06
-9.36244e-06
1.1738e-05
-1.092e-05
1.47918e-05
-1.23338e-05
1.81339e-05
-1.35224e-05
2.16889e-05
-1.44166e-05
2.53691e-05
-1.49659e-05
2.90813e-05
-1.51424e-05
3.27328e-05
-1.49417e-05
3.62369e-05
-1.43818e-05
3.95172e-05
-1.34986e-05
4.25107e-05
-1.23416e-05
4.51686e-05
-1.09685e-05
4.74573e-05
-9.44031e-06
4.93571e-05
-7.81732e-06
5.08611e-05
-6.15594e-06
5.19738e-05
-4.5064e-06
5.27086e-05
-2.91138e-06
5.30866e-05
-1.40528e-06
5.31341e-05
-1.3865e-08
5.28819e-05
1.24565e-06
5.23626e-05
2.36342e-06
5.16105e-05
3.33379e-06
5.06601e-05
4.15548e-06
4.95453e-05
4.83091e-06
4.82991e-05
5.36562e-06
4.69525e-05
5.76772e-06
4.55343e-05
6.04722e-06
4.40709e-05
6.21548e-06
4.25859e-05
6.28472e-06
4.10999e-05
6.26751e-06
3.96309e-05
6.17641e-06
3.8194e-05
6.02361e-06
3.68014e-05
5.82069e-06
3.54633e-05
5.57844e-06
3.41869e-05
5.30669e-06
3.2978e-05
5.01423e-06
3.184e-05
4.70881e-06
3.07749e-05
4.39711e-06
2.97834e-05
4.08476e-06
2.88648e-05
3.77644e-06
2.80176e-05
3.47592e-06
2.72396e-05
3.18614e-06
2.65279e-05
2.90932e-06
2.58792e-05
2.64704e-06
2.529e-05
2.40033e-06
2.47565e-05
2.16976e-06
2.42749e-05
1.9555e-06
2.38415e-05
1.75744e-06
2.34523e-05
1.57518e-06
2.31039e-05
1.40816e-06
2.27928e-05
1.25568e-06
2.25156e-05
1.11694e-06
2.22692e-05
9.91067e-07
2.20508e-05
8.7716e-07
2.18576e-05
7.74308e-07
2.16873e-05
6.81608e-07
2.15376e-05
5.98177e-07
2.14063e-05
5.23163e-07
2.12917e-05
4.55754e-07
2.1192e-05
3.9518e-07
2.11059e-05
3.40716e-07
2.10318e-05
2.91684e-07
2.09688e-05
2.47453e-07
2.09156e-05
2.07434e-07
2.08715e-05
1.71081e-07
2.08356e-05
1.37889e-07
2.08072e-05
1.07386e-07
2.07859e-05
7.9135e-08
2.0771e-05
5.27284e-08
2.07624e-05
2.77846e-08
2.07595e-05
3.94647e-09
2.07624e-05
-1.91188e-08
2.07708e-05
-4.17343e-08
2.07848e-05
-6.42223e-08
2.08042e-05
-8.69013e-08
2.08293e-05
-1.10089e-07
2.08602e-05
-1.3411e-07
2.08972e-05
-1.59296e-07
2.09406e-05
-1.85995e-07
2.09909e-05
-2.14574e-07
2.10486e-05
-2.45427e-07
2.11142e-05
-2.78979e-07
2.11886e-05
-3.15696e-07
2.12726e-05
-3.56092e-07
2.13671e-05
-4.00738e-07
2.14733e-05
-4.50278e-07
2.15924e-05
-5.05434e-07
2.17259e-05
-5.67029e-07
2.18756e-05
-6.36005e-07
2.20432e-05
-7.13442e-07
2.2231e-05
-8.00588e-07
2.24414e-05
-8.98891e-07
2.26774e-05
-1.01004e-06
2.29421e-05
-1.13602e-06
2.32392e-05
-1.27916e-06
2.35732e-05
-1.44223e-06
2.39488e-05
-1.62853e-06
2.43719e-05
-1.842e-06
2.48491e-05
-2.08742e-06
2.53881e-05
-2.37058e-06
2.59978e-05
-2.69857e-06
2.6689e-05
-3.08015e-06
2.74742e-05
-3.52628e-06
2.83681e-05
-4.05076e-06
2.93885e-05
-4.67125e-06
3.05567e-05
-5.4107e-06
3.18984e-05
-6.29942e-06
3.34444e-05
-7.37829e-06
3.52313e-05
-8.7035e-06
3.73007e-05
-1.03539e-05
3.96956e-05
-1.24421e-05
4.24481e-05
-1.51303e-05
4.55495e-05
-1.86519e-05
4.88849e-05
-2.33345e-05
5.21041e-05
-2.96118e-05
5.43797e-05
-3.79947e-05
5.4033e-05
-4.89159e-05
4.83618e-05
-6.21956e-05
3.51552e-05
-7.57373e-05
1.67629e-05
-8.47603e-05
-2.15797e-06
-8.59134e-05
-1.61383e-05
-7.82246e-05
-2.2198e-05
-6.49075e-05
-2.25426e-05
-5.12301e-05
-2.00244e-05
-3.96917e-05
-1.64592e-05
-3.06688e-05
-1.27693e-05
-2.38053e-05
-9.36215e-06
-1.86041e-05
-6.38195e-06
-1.46143e-05
-3.85024e-06
-1.14847e-05
-1.73757e-06
-8.96818e-06
-6.90648e-06
1.15969e-07
-4.93864e-07
3.11866e-07
-9.24595e-07
6.60796e-07
-1.69531e-06
1.23595e-06
-2.79888e-06
2.10625e-06
-4.21219e-06
3.33248e-06
-5.89507e-06
4.96256e-06
-7.7879e-06
7.02661e-06
-9.81126e-06
9.5326e-06
-1.18684e-05
1.24634e-05
-1.38508e-05
1.57758e-05
-1.56462e-05
1.94025e-05
-1.71491e-05
2.32566e-05
-1.82707e-05
2.72383e-05
-1.89476e-05
3.12424e-05
-1.91465e-05
3.51662e-05
-1.88655e-05
3.89151e-05
-1.81308e-05
4.24082e-05
-1.69917e-05
4.55802e-05
-1.55135e-05
4.83825e-05
-1.37709e-05
5.07835e-05
-1.18413e-05
5.27664e-05
-9.80024e-06
5.43281e-05
-7.71761e-06
5.54765e-05
-5.65484e-06
5.62288e-05
-3.66368e-06
5.6609e-05
-1.78548e-06
5.66462e-05
-5.10878e-08
5.63728e-05
1.51905e-06
5.58236e-05
2.91259e-06
5.50345e-05
4.12297e-06
5.40412e-05
5.14871e-06
5.28792e-05
5.99295e-06
5.15822e-05
6.66263e-06
5.01821e-05
7.16778e-06
4.87086e-05
7.52073e-06
4.71886e-05
7.73552e-06
4.56462e-05
7.82714e-06
4.41026e-05
7.81108e-06
4.25762e-05
7.70281e-06
4.10824e-05
7.51735e-06
3.96341e-05
7.26902e-06
3.82414e-05
6.97114e-06
3.69122e-05
6.63591e-06
3.56522e-05
6.27426e-06
3.44651e-05
5.89583e-06
3.33533e-05
5.50895e-06
3.23173e-05
5.12072e-06
3.13568e-05
4.73699e-06
3.04702e-05
4.36251e-06
2.96553e-05
4.00104e-06
2.89092e-05
3.65539e-06
2.82287e-05
3.32761e-06
2.761e-05
3.01902e-06
2.70494e-05
2.73038e-06
2.65429e-05
2.46198e-06
2.60866e-05
2.21369e-06
2.56767e-05
1.98508e-06
2.53094e-05
1.77546e-06
2.49811e-05
1.58398e-06
2.46884e-05
1.40967e-06
2.4428e-05
1.25144e-06
2.4197e-05
1.10819e-06
2.39925e-05
9.78787e-07
2.3812e-05
8.62111e-07
2.36531e-05
7.57061e-07
2.35137e-05
6.62577e-07
2.33918e-05
5.77644e-07
2.32857e-05
5.01301e-07
2.31938e-05
4.3264e-07
2.31146e-05
3.70816e-07
2.30471e-05
3.15035e-07
2.29899e-05
2.64561e-07
2.29423e-05
2.18712e-07
2.29033e-05
1.76852e-07
2.28723e-05
1.38391e-07
2.28487e-05
1.02782e-07
2.28319e-05
6.95133e-08
2.28216e-05
3.8106e-08
2.28174e-05
8.11202e-09
2.28192e-05
-2.08884e-08
2.28268e-05
-4.93e-08
2.28401e-05
-7.75239e-08
2.28591e-05
-1.05956e-07
2.2884e-05
-1.34994e-07
2.29149e-05
-1.65039e-07
2.29522e-05
-1.96505e-07
2.2996e-05
-2.29822e-07
2.30468e-05
-2.65445e-07
2.31053e-05
-3.0386e-07
2.31719e-05
-3.45591e-07
2.32474e-05
-3.91209e-07
2.33327e-05
-4.41345e-07
2.34286e-05
-4.96699e-07
2.35364e-05
-5.58052e-07
2.36572e-05
-6.26285e-07
2.37926e-05
-7.02398e-07
2.39441e-05
-7.87526e-07
2.41137e-05
-8.82973e-07
2.43033e-05
-9.90238e-07
2.45155e-05
-1.11105e-06
2.47529e-05
-1.24744e-06
2.50186e-05
-1.40174e-06
2.53161e-05
-1.57671e-06
2.56495e-05
-1.77562e-06
2.60233e-05
-2.00233e-06
2.64427e-05
-2.26142e-06
2.69137e-05
-2.55841e-06
2.74431e-05
-2.89997e-06
2.80388e-05
-3.29419e-06
2.87096e-05
-3.75099e-06
2.9466e-05
-4.28264e-06
3.03196e-05
-4.90444e-06
3.12841e-05
-5.63575e-06
3.23747e-05
-6.50126e-06
3.36082e-05
-7.53293e-06
3.50026e-05
-8.77267e-06
3.65752e-05
-1.02761e-05
3.83388e-05
-1.21176e-05
4.02939e-05
-1.43972e-05
4.24121e-05
-1.72485e-05
4.46061e-05
-2.08459e-05
4.66771e-05
-2.54054e-05
4.82325e-05
-3.11672e-05
4.85738e-05
-3.8336e-05
4.6594e-05
-4.69361e-05
4.08911e-05
-5.64926e-05
3.06594e-05
-6.55057e-05
1.72876e-05
-7.13886e-05
3.57886e-06
-7.22046e-05
-7.17713e-06
-6.74687e-05
-1.32396e-05
-5.8845e-05
-1.53034e-05
-4.91663e-05
-1.48241e-05
-4.0171e-05
-1.29948e-05
-3.24981e-05
-1.05919e-05
-2.62082e-05
-8.06693e-06
-2.1129e-05
-5.65939e-06
-1.70219e-05
-3.48429e-06
-1.36598e-05
-1.59046e-06
-1.0862e-05
-8.49694e-06
7.84987e-08
-5.72363e-07
2.33999e-07
-1.0801e-06
5.48368e-07
-2.00968e-06
1.10407e-06
-3.35459e-06
1.9794e-06
-5.08751e-06
3.24405e-06
-7.15972e-06
4.95364e-06
-9.49749e-06
7.14374e-06
-1.20014e-05
9.82433e-06
-1.4549e-05
1.29759e-05
-1.70024e-05
1.65485e-05
-1.92187e-05
2.04634e-05
-2.10641e-05
2.46198e-05
-2.24271e-05
2.89028e-05
-2.32305e-05
3.3193e-05
-2.34367e-05
3.73758e-05
-2.30483e-05
4.13487e-05
-2.21036e-05
4.50258e-05
-2.06688e-05
4.83409e-05
-1.88286e-05
5.12473e-05
-1.66773e-05
5.37169e-05
-1.43109e-05
5.57381e-05
-1.18215e-05
5.73132e-05
-9.29265e-06
5.84555e-05
-6.79712e-06
5.9187e-05
-4.39518e-06
5.95359e-05
-2.13444e-06
5.95347e-05
-4.99193e-08
5.92184e-05
1.8354e-06
5.86236e-05
3.5074e-06
5.77878e-05
4.95879e-06
5.67481e-05
6.18839e-06
5.55406e-05
7.2004e-06
5.41998e-05
8.00346e-06
5.27578e-05
8.60978e-06
5.12443e-05
9.03423e-06
4.96862e-05
9.2936e-06
4.81076e-05
9.40578e-06
4.65295e-05
9.38919e-06
4.49701e-05
9.26222e-06
4.34447e-05
9.04272e-06
4.1966e-05
8.7477e-06
4.05442e-05
8.39301e-06
3.91869e-05
7.99317e-06
3.78999e-05
7.56122e-06
3.66871e-05
7.10868e-06
3.55505e-05
6.64555e-06
3.44909e-05
6.1803e-06
3.35079e-05
5.72002e-06
3.25999e-05
5.27044e-06
3.17649e-05
4.8361e-06
3.09998e-05
4.42044e-06
3.03015e-05
4.02596e-06
2.96662e-05
3.65432e-06
2.90901e-05
3.30648e-06
2.85693e-05
2.98281e-06
2.80997e-05
2.68321e-06
2.76776e-05
2.4072e-06
2.72991e-05
2.15399e-06
2.69605e-05
1.92257e-06
2.66584e-05
1.71179e-06
2.63894e-05
1.52039e-06
2.61506e-05
1.34702e-06
2.5939e-05
1.19036e-06
2.57521e-05
1.04904e-06
2.55874e-05
9.21769e-07
2.54427e-05
8.07259e-07
2.5316e-05
7.04294e-07
2.52056e-05
6.11717e-07
2.51098e-05
5.2844e-07
2.50272e-05
4.5344e-07
2.49565e-05
3.85764e-07
2.48965e-05
3.24524e-07
2.48463e-05
2.68896e-07
2.48051e-05
2.18115e-07
2.4772e-05
1.7147e-07
2.47465e-05
1.283e-07
2.4728e-05
8.79884e-08
2.47161e-05
4.99575e-08
2.47106e-05
1.36661e-08
2.47111e-05
-2.13943e-08
2.47175e-05
-5.5712e-08
2.47297e-05
-8.9767e-08
2.47478e-05
-1.24034e-07
2.47718e-05
-1.58989e-07
2.48019e-05
-1.95111e-07
2.48383e-05
-2.32893e-07
2.48813e-05
-2.7285e-07
2.49314e-05
-3.1552e-07
2.4989e-05
-3.6148e-07
2.50548e-05
-4.11347e-07
2.51293e-05
-4.65798e-07
2.52136e-05
-5.25572e-07
2.53084e-05
-5.91489e-07
2.54148e-05
-6.64465e-07
2.5534e-05
-7.45525e-07
2.56674e-05
-8.35829e-07
2.58166e-05
-9.36694e-07
2.59833e-05
-1.04962e-06
2.61694e-05
-1.17633e-06
2.63771e-05
-1.31881e-06
2.6609e-05
-1.47936e-06
2.68679e-05
-1.66063e-06
2.7157e-05
-1.86574e-06
2.74797e-05
-2.09834e-06
2.78401e-05
-2.36273e-06
2.82427e-05
-2.664e-06
2.86924e-05
-3.00819e-06
2.91951e-05
-3.40258e-06
2.97567e-05
-3.85588e-06
3.03844e-05
-4.3787e-06
3.10858e-05
-4.98397e-06
3.1869e-05
-5.68761e-06
3.27426e-05
-6.50938e-06
3.37153e-05
-7.47398e-06
3.47949e-05
-8.61255e-06
3.59869e-05
-9.96463e-06
3.72914e-05
-1.15805e-05
3.86981e-05
-1.35243e-05
4.01777e-05
-1.58767e-05
4.16664e-05
-1.87372e-05
4.30431e-05
-2.22226e-05
4.40953e-05
-2.64576e-05
4.44767e-05
-3.15485e-05
4.36685e-05
-3.75278e-05
4.09835e-05
-4.42512e-05
3.57205e-05
-5.12296e-05
2.76522e-05
-5.74374e-05
1.76699e-05
-6.14062e-05
7.48633e-06
-6.20211e-05
-9.53968e-07
-5.90284e-05
-6.51099e-06
-5.3288e-05
-9.30606e-06
-4.63712e-05
-1.00432e-05
-3.94338e-05
-9.4557e-06
-3.30856e-05
-8.11773e-06
-2.75462e-05
-6.42707e-06
-2.28197e-05
-4.63923e-06
-1.88097e-05
-2.91161e-06
-1.53875e-05
-1.34176e-06
-1.24319e-05
-9.8387e-06
1.46074e-08
-5.8697e-07
9.98062e-08
-1.16529e-06
3.48613e-07
-2.25848e-06
8.54473e-07
-3.86045e-06
1.70677e-06
-5.9398e-06
2.98583e-06
-8.43878e-06
4.75659e-06
-1.12682e-05
7.06133e-06
-1.43061e-05
9.91267e-06
-1.74004e-05
1.32883e-05
-2.03781e-05
1.71295e-05
-2.30599e-05
2.13438e-05
-2.52783e-05
2.58128e-05
-2.68961e-05
3.0403e-05
-2.78208e-05
3.49782e-05
-2.80119e-05
3.94102e-05
-2.74803e-05
4.35876e-05
-2.6281e-05
4.74206e-05
-2.45019e-05
5.08431e-05
-2.22512e-05
5.38121e-05
-1.96463e-05
5.63054e-05
-1.68041e-05
5.83183e-05
-1.38344e-05
5.98606e-05
-1.08349e-05
6.09527e-05
-7.88923e-06
6.16229e-05
-5.06546e-06
6.19048e-05
-2.41634e-06
6.18348e-05
2.00831e-08
6.14508e-05
2.21942e-06
6.07918e-05
4.1664e-06
5.9897e-05
5.85367e-06
5.88044e-05
7.28094e-06
5.75508e-05
8.45402e-06
5.61705e-05
9.3837e-06
5.46956e-05
1.00847e-05
5.31551e-05
1.05747e-05
5.15754e-05
1.08733e-05
4.99796e-05
1.10015e-05
4.83882e-05
1.09807e-05
4.68185e-05
1.08319e-05
4.52851e-05
1.05761e-05
4.38002e-05
1.02326e-05
4.23734e-05
9.81985e-06
4.1012e-05
9.35456e-06
3.97214e-05
8.85181e-06
3.85052e-05
8.3249e-06
3.73653e-05
7.7854e-06
3.63025e-05
7.24316e-06
3.53161e-05
6.7064e-06
3.44047e-05
6.18183e-06
3.35661e-05
5.67473e-06
3.27974e-05
5.18916e-06
3.20953e-05
4.72806e-06
3.14562e-05
4.2934e-06
3.08763e-05
3.88635e-06
3.03517e-05
3.50738e-06
2.98785e-05
3.15641e-06
2.94528e-05
2.83291e-06
2.90708e-05
2.53598e-06
2.87289e-05
2.2645e-06
2.84236e-05
2.01711e-06
2.81516e-05
1.79237e-06
2.79099e-05
1.58874e-06
2.76956e-05
1.40465e-06
2.75061e-05
1.23855e-06
2.7339e-05
1.0889e-06
2.7192e-05
9.5422e-07
2.70632e-05
8.33087e-07
2.69508e-05
7.24151e-07
2.68531e-05
6.26139e-07
2.67687e-05
5.37857e-07
2.66962e-05
4.58188e-07
2.66347e-05
3.86096e-07
2.65829e-05
3.20615e-07
2.65402e-05
2.6085e-07
2.65057e-05
2.05968e-07
2.64788e-05
1.55197e-07
2.6459e-05
1.07815e-07
2.64458e-05
6.31451e-08
2.64389e-05
2.05545e-08
2.64381e-05
-2.05548e-08
2.64431e-05
-6.07539e-08
2.6454e-05
-1.00601e-07
2.64706e-05
-1.40649e-07
2.6493e-05
-1.81447e-07
2.65215e-05
-2.23554e-07
2.65561e-05
-2.67539e-07
2.65973e-05
-3.13995e-07
2.66453e-05
-3.63542e-07
2.67006e-05
-4.1684e-07
2.67639e-05
-4.74599e-07
2.68357e-05
-5.37588e-07
2.69168e-05
-6.0665e-07
2.7008e-05
-6.82716e-07
2.71103e-05
-7.66818e-07
2.72249e-05
-8.60114e-07
2.7353e-05
-9.63906e-07
2.7496e-05
-1.07967e-06
2.76554e-05
-1.20907e-06
2.78331e-05
-1.35402e-06
2.8031e-05
-1.51671e-06
2.82513e-05
-1.69966e-06
2.84965e-05
-1.90578e-06
2.87692e-05
-2.13845e-06
2.90724e-05
-2.40161e-06
2.94095e-05
-2.69984e-06
2.97841e-05
-3.03858e-06
3.02001e-05
-3.42418e-06
3.06617e-05
-3.86421e-06
3.11735e-05
-4.36768e-06
3.17402e-05
-4.94538e-06
3.23665e-05
-5.61028e-06
3.3057e-05
-6.37808e-06
3.38155e-05
-7.26786e-06
3.46444e-05
-8.3029e-06
3.55436e-05
-9.5117e-06
3.65081e-05
-1.09291e-05
3.75252e-05
-1.25976e-05
3.85692e-05
-1.45684e-05
3.95938e-05
-1.69014e-05
4.05208e-05
-1.96642e-05
4.12246e-05
-2.29264e-05
4.15138e-05
-2.67469e-05
4.1115e-05
-3.11497e-05
3.9669e-05
-3.60819e-05
3.67677e-05
-4.13499e-05
3.20773e-05
-4.65391e-05
2.5597e-05
-5.09572e-05
1.79283e-05
-5.37375e-05
1.01358e-05
-5.42286e-05
3.39186e-06
-5.22845e-05
-1.52442e-06
-4.83717e-05
-4.53564e-06
-4.336e-05
-5.95223e-06
-3.80173e-05
-6.20233e-06
-3.28355e-05
-5.68172e-06
-2.80668e-05
-4.70535e-06
-2.3796e-05
-3.50467e-06
-2.00104e-05
-2.24432e-06
-1.66478e-05
-1.04379e-06
-1.36324e-05
-1.08825e-05
-7.6752e-08
-5.10218e-07
-9.22511e-08
-1.1498e-06
5.96805e-08
-2.41041e-06
4.85219e-07
-4.28599e-06
1.28666e-06
-6.74125e-06
2.55687e-06
-9.70898e-06
4.37185e-06
-1.30832e-05
6.78217e-06
-1.67164e-05
9.80379e-06
-2.0422e-05
1.34111e-05
-2.39854e-05
1.75346e-05
-2.71834e-05
2.20644e-05
-2.98082e-05
2.68607e-05
-3.16924e-05
3.17674e-05
-3.27275e-05
3.66281e-05
-3.28726e-05
4.12995e-05
-3.21517e-05
4.56609e-05
-3.06424e-05
4.96195e-05
-2.84604e-05
5.31111e-05
-2.57428e-05
5.60986e-05
-2.26338e-05
5.85679e-05
-1.92735e-05
6.0524e-05
-1.57904e-05
6.19858e-05
-1.22967e-05
6.29827e-05
-8.88611e-06
6.35506e-05
-5.63339e-06
6.37292e-05
-2.595e-06
6.35595e-05
1.89775e-07
6.30829e-05
2.69607e-06
6.23409e-05
4.90837e-06
6.13744e-05
6.82021e-06
6.02223e-05
8.43301e-06
5.89215e-05
9.75487e-06
5.75059e-05
1.07993e-05
5.60066e-05
1.1584e-05
5.44517e-05
1.21296e-05
5.2866e-05
1.2459e-05
5.12716e-05
1.2596e-05
4.96872e-05
1.2565e-05
4.81291e-05
1.23901e-05
4.66106e-05
1.20945e-05
4.51429e-05
1.17004e-05
4.37345e-05
1.12282e-05
4.23922e-05
1.06969e-05
4.11206e-05
1.01234e-05
3.9923e-05
9.52255e-06
3.88008e-05
8.90753e-06
3.77546e-05
8.28938e-06
3.67836e-05
7.67739e-06
3.58863e-05
7.07913e-06
3.50605e-05
6.50062e-06
3.43032e-05
5.94646e-06
3.36112e-05
5.42001e-06
3.29811e-05
4.92353e-06
3.2409e-05
4.45839e-06
3.18913e-05
4.02514e-06
3.1424e-05
3.62373e-06
3.10033e-05
3.25357e-06
3.06256e-05
2.91369e-06
3.02873e-05
2.60279e-06
2.9985e-05
2.31939e-06
2.97156e-05
2.06183e-06
2.94759e-05
1.82838e-06
2.92633e-05
1.61727e-06
2.90751e-05
1.42672e-06
2.8909e-05
1.255e-06
2.87628e-05
1.10042e-06
2.86346e-05
9.61355e-07
2.85224e-05
8.36268e-07
2.84249e-05
7.23707e-07
2.83404e-05
6.22308e-07
2.82678e-05
5.30798e-07
2.82059e-05
4.47993e-07
2.81537e-05
3.72789e-07
2.81104e-05
3.04164e-07
2.80752e-05
2.41168e-07
2.80475e-05
1.82917e-07
2.80267e-05
1.28587e-07
2.80125e-05
7.7406e-08
2.80044e-05
2.86501e-08
2.80022e-05
-1.83651e-08
2.80057e-05
-6.42916e-08
2.80149e-05
-1.09764e-07
2.80296e-05