/*--------------------------------*- C++ -*----------------------------------*\
  =========                 |
  \\      /  F ield         | OpenFOAM: The Open Source CFD Toolbox
   \\    /   O peration     | Website:  https://openfoam.org
    \\  /    A nd           | Version:  12
     \\/     M anipulation  |
\*---------------------------------------------------------------------------*/
FoamFile
{
    format      ascii;
    class       volVectorField;
    location    "30";
    object      U;
}
// * * * * * * * * * * * * * * * * * * * * * * * * * * * * * * * * * * * * * //

dimensions      [0 1 -1 0 0 0 0];

internalField   nonuniform List<vector> 
4480
(
(-3.45482e-06 0 2.03943e-06)
(3.09616e-06 0 -1.45535e-05)
(4.08503e-05 0 -4.20736e-05)
(0.000124953 0 -8.0207e-05)
(0.000269884 0 -0.000128322)
(0.000489041 0 -0.000185106)
(0.000793582 0 -0.000248646)
(0.00119154 0 -0.000316433)
(0.00168703 0 -0.00038542)
(0.00227949 0 -0.000452172)
(0.00296337 0 -0.000513105)
(0.00372802 0 -0.000564777)
(0.00455813 0 -0.000604192)
(0.00543456 0 -0.000629065)
(0.00633552 0 -0.000638012)
(0.0072379 0 -0.00063063)
(0.00811871 0 -0.000607479)
(0.00895638 0 -0.00056996)
(0.00973184 0 -0.000520136)
(0.0104293 0 -0.000460514)
(0.0110368 0 -0.000393827)
(0.0115462 0 -0.00032284)
(0.0119533 0 -0.000250176)
(0.0122574 0 -0.000178205)
(0.0124611 0 -0.000108948)
(0.0125693 0 -4.39953e-05)
(0.0125891 0 1.55895e-05)
(0.012529 0 6.91343e-05)
(0.0123973 0 0.000116221)
(0.0122035 0 0.000156693)
(0.0119571 0 0.000190546)
(0.0116673 0 0.000217936)
(0.0113431 0 0.000239159)
(0.010993 0 0.000254624)
(0.0106249 0 0.000264816)
(0.0102457 0 0.000270276)
(0.00986177 0 0.000271574)
(0.00947864 0 0.000269284)
(0.00910096 0 0.000263974)
(0.0087326 0 0.000256185)
(0.00837672 0 0.000246424)
(0.00803576 0 0.000235156)
(0.00771157 0 0.000222798)
(0.00740541 0 0.000209719)
(0.00711807 0 0.000196237)
(0.00684993 0 0.000182625)
(0.006601 0 0.000169106)
(0.00637103 0 0.000155865)
(0.0061595 0 0.000143045)
(0.00596576 0 0.000130756)
(0.00578897 0 0.00011908)
(0.00562824 0 0.00010807)
(0.00548261 0 9.77576e-05)
(0.00535106 0 8.81579e-05)
(0.00523259 0 7.92697e-05)
(0.00512621 0 7.10801e-05)
(0.00503094 0 6.35672e-05)
(0.00494584 0 5.67021e-05)
(0.00487002 0 5.04512e-05)
(0.00480264 0 4.47773e-05)
(0.0047429 0 3.96415e-05)
(0.00469008 0 3.50041e-05)
(0.00464349 0 3.08254e-05)
(0.00460252 0 2.70664e-05)
(0.0045666 0 2.36895e-05)
(0.00453521 0 2.06584e-05)
(0.00450788 0 1.79391e-05)
(0.00448421 0 1.5499e-05)
(0.00446381 0 1.33081e-05)
(0.00444635 0 1.13379e-05)
(0.00443154 0 9.56243e-06)
(0.00441912 0 7.95716e-06)
(0.00440887 0 6.49955e-06)
(0.00440059 0 5.16868e-06)
(0.00439411 0 3.94516e-06)
(0.0043893 0 2.81094e-06)
(0.00438605 0 1.74928e-06)
(0.00438425 0 7.4479e-07)
(0.00438383 0 -2.16353e-07)
(0.00438476 0 -1.14824e-06)
(0.00438699 0 -2.06498e-06)
(0.00439051 0 -2.97968e-06)
(0.00439533 0 -3.90548e-06)
(0.00440147 0 -4.85561e-06)
(0.00440898 0 -5.84358e-06)
(0.00441792 0 -6.88333e-06)
(0.00442836 0 -7.98953e-06)
(0.00444042 0 -9.17775e-06)
(0.00445423 0 -1.04648e-05)
(0.00446992 0 -1.18689e-05)
(0.00448769 0 -1.34101e-05)
(0.00450773 0 -1.51109e-05)
(0.0045303 0 -1.6996e-05)
(0.00455566 0 -1.90938e-05)
(0.00458415 0 -2.14363e-05)
(0.00461612 0 -2.406e-05)
(0.004652 0 -2.70073e-05)
(0.00469228 0 -3.03267e-05)
(0.00473752 0 -3.40753e-05)
(0.00478837 0 -3.83193e-05)
(0.00484556 0 -4.3137e-05)
(0.00490998 0 -4.8621e-05)
(0.00498263 0 -5.48811e-05)
(0.00506467 0 -6.2049e-05)
(0.00515749 0 -7.0283e-05)
(0.00526271 0 -7.97747e-05)
(0.00538225 0 -9.07576e-05)
(0.00551836 0 -0.000103518)
(0.00567378 0 -0.000118407)
(0.00585176 0 -0.000135863)
(0.00605625 0 -0.000156431)
(0.00629205 0 -0.000180791)
(0.00656505 0 -0.000209795)
(0.00688248 0 -0.000244503)
(0.00725332 0 -0.000286218)
(0.0076887 0 -0.000336505)
(0.00820242 0 -0.000397162)
(0.0088115 0 -0.000470125)
(0.00953751 0 -0.000557717)
(0.01041 0 -0.000665428)
(0.0114654 0 -0.000811917)
(0.0127187 0 -0.00104849)
(0.014195 0 -0.00151331)
(0.0167058 0 -0.00286675)
(0.0242854 0 -0.00868206)
(0.0382952 0 -0.0316263)
(0.0428525 0 -0.0803404)
(0.0200203 0 -0.101201)
(-0.00910279 0 -0.103876)
(-0.0343787 0 -0.0845468)
(-0.0302933 0 -0.0329103)
(-0.0153911 0 -0.00924773)
(-0.00744015 0 -0.00300016)
(-0.00498409 0 -0.0014768)
(-0.0036551 0 -0.00094674)
(-0.00256315 0 -0.000685753)
(-0.0016786 0 -0.000527648)
(-0.000985027 0 -0.000409067)
(-0.000455933 0 -0.000308819)
(-0.000204675 0 -0.000200428)
(9.24053e-06 0 -3.72766e-06)
(3.08044e-05 0 -3.78059e-05)
(9.33427e-05 0 -9.5051e-05)
(0.000210194 0 -0.000174776)
(0.000399045 0 -0.000275543)
(0.000675986 0 -0.000394593)
(0.00105415 0 -0.000527911)
(0.00154282 0 -0.000670229)
(0.00214658 0 -0.000815144)
(0.00286446 0 -0.000955437)
(0.0036896 0 -0.00108357)
(0.0046092 0 -0.00119231)
(0.00560507 0 -0.00127532)
(0.00665465 0 -0.0013278)
(0.00773238 0 -0.00134681)
(0.00881127 0 -0.00133151)
(0.00986457 0 -0.00128305)
(0.0108672 0 -0.00120437)
(0.0117969 0 -0.00109979)
(0.0126353 0 -0.000974567)
(0.0133684 0 -0.000834431)
(0.0139864 0 -0.000685164)
(0.0144842 0 -0.000532265)
(0.0148606 0 -0.000380687)
(0.015118 0 -0.000234657)
(0.0152619 0 -9.75349e-05)
(0.0152999 0 2.83383e-05)
(0.0152418 0 0.000141556)
(0.0150974 0 0.000241286)
(0.0148776 0 0.000327122)
(0.0145934 0 0.000399038)
(0.0142559 0 0.000457354)
(0.0138756 0 0.000502681)
(0.0134626 0 0.00053586)
(0.0130264 0 0.000557906)
(0.0125754 0 0.000569943)
(0.0121172 0 0.000573162)
(0.0116586 0 0.000568769)
(0.0112053 0 0.000557953)
(0.0107622 0 0.000541854)
(0.0103331 0 0.000521538)
(0.00992108 0 0.000497988)
(0.00952862 0 0.000472085)
(0.00915732 0 0.000444612)
(0.00880828 0 0.000416245)
(0.00848205 0 0.000387561)
(0.00817876 0 0.00035904)
(0.00789818 0 0.000331074)
(0.00763979 0 0.000303973)
(0.00740282 0 0.000277974)
(0.00718636 0 0.00025325)
(0.00698934 0 0.000229921)
(0.00681064 0 0.000208058)
(0.00664906 0 0.000187692)
(0.00650342 0 0.000168826)
(0.00637251 0 0.000151434)
(0.00625516 0 0.000135472)
(0.00615025 0 0.000120879)
(0.0060567 0 0.000107587)
(0.00597349 0 9.55169e-05)
(0.00589965 0 8.45877e-05)
(0.0058343 0 7.47158e-05)
(0.00577662 0 6.58175e-05)
(0.00572584 0 5.78107e-05)
(0.00568127 0 5.06157e-05)
(0.00564228 0 4.41561e-05)
(0.00560831 0 3.83593e-05)
(0.00557883 0 3.3157e-05)
(0.0055534 0 2.84849e-05)
(0.00553161 0 2.42832e-05)
(0.00551308 0 2.04962e-05)
(0.00549751 0 1.7072e-05)
(0.00548462 0 1.39629e-05)
(0.00547417 0 1.11242e-05)
(0.00546595 0 8.51484e-06)
(0.00545979 0 6.09646e-06)
(0.00545555 0 3.83345e-06)
(0.00545311 0 1.69285e-06)
(0.00545239 0 -3.55444e-07)
(0.00545332 0 -2.34064e-06)
(0.00545586 0 -4.29207e-06)
(0.00546 0 -6.23815e-06)
(0.00546573 0 -8.20686e-06)
(0.0054731 0 -1.02263e-05)
(0.00548214 0 -1.23251e-05)
(0.00549294 0 -1.45328e-05)
(0.00550559 0 -1.68807e-05)
(0.00552022 0 -1.94016e-05)
(0.00553699 0 -2.21311e-05)
(0.00555607 0 -2.51079e-05)
(0.00557769 0 -2.83746e-05)
(0.00560209 0 -3.19782e-05)
(0.00562957 0 -3.59715e-05)
(0.00566046 0 -4.04142e-05)
(0.00569517 0 -4.53739e-05)
(0.00573412 0 -5.0928e-05)
(0.00577784 0 -5.71653e-05)
(0.00582691 0 -6.4189e-05)
(0.00588201 0 -7.21186e-05)
(0.00594393 0 -8.10943e-05)
(0.00601357 0 -9.12808e-05)
(0.00609197 0 -0.000102873)
(0.00618036 0 -0.000116102)
(0.00628013 0 -0.000131245)
(0.00639296 0 -0.000148636)
(0.00652078 0 -0.000168677)
(0.00666589 0 -0.00019186)
(0.00683102 0 -0.000218787)
(0.00701941 0 -0.000250202)
(0.00723499 0 -0.000287031)
(0.00748247 0 -0.000330431)
(0.00776762 0 -0.000381867)
(0.00809753 0 -0.000443197)
(0.00848101 0 -0.000516803)
(0.0089292 0 -0.000605766)
(0.00945639 0 -0.000714116)
(0.0100814 0 -0.000847246)
(0.01083 0 -0.00101267)
(0.0117397 0 -0.00122182)
(0.0128692 0 -0.00149548)
(0.0143135 0 -0.00187834)
(0.0162224 0 -0.0024696)
(0.0188779 0 -0.00348439)
(0.0230197 0 -0.00551363)
(0.030023 0 -0.0107298)
(0.0376019 0 -0.0258087)
(0.0344712 0 -0.0579008)
(0.0170773 0 -0.0757087)
(-0.00577171 0 -0.0775208)
(-0.0246227 0 -0.0609703)
(-0.0279835 0 -0.0272363)
(-0.0198954 0 -0.011269)
(-0.0125621 0 -0.00563671)
(-0.0083112 0 -0.0034098)
(-0.00565414 0 -0.00229999)
(-0.00380488 0 -0.00166194)
(-0.00246521 0 -0.00124907)
(-0.00146987 0 -0.000945338)
(-0.000717708 0 -0.00069627)
(-0.000330774 0 -0.000469816)
(2.10136e-05 0 -3.14683e-05)
(5.59809e-05 0 -9.38487e-05)
(0.000140936 0 -0.000200847)
(0.000286446 0 -0.00035072)
(0.000513063 0 -0.000540332)
(0.000839419 0 -0.000764327)
(0.00128055 0 -0.00101502)
(0.00184703 0 -0.00128237)
(0.00254393 0 -0.00155429)
(0.00336999 0 -0.00181718)
(0.00431712 0 -0.00205696)
(0.00537048 0 -0.00226013)
(0.00650918 0 -0.00241499)
(0.00770742 0 -0.00251267)
(0.0089362 0 -0.00254786)
(0.0101651 0 -0.00251905)
(0.0113641 0 -0.00242848)
(0.0125054 0 -0.00228162)
(0.0135642 0 -0.00208646)
(0.0145203 0 -0.00185269)
(0.0153583 0 -0.00159084)
(0.0160674 0 -0.00131157)
(0.016642 0 -0.00102498)
(0.0170805 0 -0.000740235)
(0.0173856 0 -0.00046515)
(0.0175629 0 -0.000206021)
(0.0176205 0 3.25777e-05)
(0.0175691 0 0.000247764)
(0.0174195 0 0.00043788)
(0.0171837 0 0.00060205)
(0.016874 0 0.00074014)
(0.0165025 0 0.000852671)
(0.0160812 0 0.000940718)
(0.0156213 0 0.0010058)
(0.0151334 0 0.00104976)
(0.0146273 0 0.00107467)
(0.0141115 0 0.00108275)
(0.0135937 0 0.00107623)
(0.0130807 0 0.00105734)
(0.0125779 0 0.00102824)
(0.01209 0 0.000990926)
(0.0116207 0 0.000947275)
(0.0111728 0 0.000898967)
(0.0107483 0 0.000847495)
(0.0103485 0 0.000794161)
(0.00997435 0 0.000740076)
(0.00962599 0 0.000686172)
(0.00930328 0 0.00063321)
(0.0090057 0 0.000581796)
(0.00873247 0 0.000532398)
(0.00848259 0 0.000485361)
(0.00825491 0 0.000440923)
(0.00804817 0 0.000399233)
(0.00786106 0 0.000360362)
(0.00769223 0 0.00032432)
(0.00754034 0 0.000291068)
(0.00740406 0 0.000260527)
(0.00728211 0 0.000232587)
(0.00717326 0 0.000207121)
(0.00707634 0 0.000183982)
(0.00699027 0 0.000163019)
(0.00691402 0 0.000144073)
(0.00684664 0 0.000126988)
(0.00678726 0 0.000111607)
(0.00673509 0 9.77785e-05)
(0.0066894 0 8.53585e-05)
(0.00664953 0 7.42084e-05)
(0.0066149 0 6.41978e-05)
(0.00658496 0 5.52043e-05)
(0.00655926 0 4.71135e-05)
(0.00653736 0 3.98192e-05)
(0.00651891 0 3.32223e-05)
(0.00650358 0 2.72312e-05)
(0.00649108 0 2.17608e-05)
(0.00648119 0 1.67324e-05)
(0.0064737 0 1.20724e-05)
(0.00646845 0 7.71282e-06)
(0.00646529 0 3.59004e-06)
(0.00646413 0 -3.54716e-07)
(0.00646489 0 -4.17689e-06)
(0.00646752 0 -7.93148e-06)
(0.006472 0 -1.16732e-05)
(0.00647834 0 -1.54559e-05)
(0.00648655 0 -1.93334e-05)
(0.00649671 0 -2.33603e-05)
(0.00650888 0 -2.75934e-05)
(0.0065232 0 -3.2092e-05)
(0.00653978 0 -3.69191e-05)
(0.00655882 0 -4.21425e-05)
(0.00658051 0 -4.78359e-05)
(0.00660511 0 -5.40801e-05)
(0.00663288 0 -6.09648e-05)
(0.00666418 0 -6.85905e-05)
(0.00669936 0 -7.707e-05)
(0.00673888 0 -8.65318e-05)
(0.00678324 0 -9.71224e-05)
(0.006833 0 -0.00010901)
(0.00688884 0 -0.00012239)
(0.00695151 0 -0.000137487)
(0.00702189 0 -0.000154567)
(0.00710099 0 -0.000173939)
(0.00718996 0 -0.00019597)
(0.00729015 0 -0.000221095)
(0.00740312 0 -0.000249835)
(0.00753071 0 -0.000282813)
(0.00767504 0 -0.000320786)
(0.00783863 0 -0.000364673)
(0.00802444 0 -0.0004156)
(0.008236 0 -0.000474962)
(0.00847754 0 -0.000544491)
(0.00875416 0 -0.000626369)
(0.00907204 0 -0.000723366)
(0.00943883 0 -0.000839048)
(0.00986401 0 -0.000978074)
(0.0103596 0 -0.00114666)
(0.0109413 0 -0.00135333)
(0.0116299 0 -0.00161028)
(0.0124538 0 -0.00193584)
(0.013454 0 -0.00235954)
(0.0146907 0 -0.00293294)
(0.0162526 0 -0.00375245)
(0.0182658 0 -0.00500332)
(0.0209048 0 -0.00703891)
(0.0243849 0 -0.0105615)
(0.0285954 0 -0.0170705)
(0.0312776 0 -0.0291905)
(0.0269173 0 -0.0467508)
(0.0143329 0 -0.0579187)
(-0.00214664 0 -0.0590717)
(-0.0157476 0 -0.0487398)
(-0.0203778 0 -0.0305589)
(-0.0175209 0 -0.0178308)
(-0.0130655 0 -0.0108912)
(-0.00939992 0 -0.00708165)
(-0.00664801 0 -0.00486361)
(-0.00458895 0 -0.00349662)
(-0.00303881 0 -0.00259388)
(-0.00185314 0 -0.00194726)
(-0.000928479 0 -0.00144659)
(-0.000426125 0 -0.00103565)
(2.91165e-05 0 -7.43914e-05)
(7.31955e-05 0 -0.000166961)
(0.00017402 0 -0.000327382)
(0.00034066 0 -0.000553151)
(0.00059639 0 -0.000839333)
(0.000962392 0 -0.00117773)
(0.00145576 0 -0.00155657)
(0.00208853 0 -0.00196049)
(0.00286647 0 -0.00237098)
(0.00378811 0 -0.00276736)
(0.00484416 0 -0.00312821)
(0.00601763 0 -0.00343316)
(0.00728469 0 -0.00366467)
(0.00861613 0 -0.00380962)
(0.00997932 0 -0.00386029)
(0.0113404 0 -0.0038148)
(0.0126661 0 -0.00367682)
(0.0139262 0 -0.00345482)
(0.015094 0 -0.00316093)
(0.016148 0 -0.00280967)
(0.0170719 0 -0.00241674)
(0.0178547 0 -0.00199788)
(0.0184907 0 -0.00156801)
(0.0189786 0 -0.0011406)
(0.0193214 0 -0.000727132)
(0.0195253 0 -0.000336922)
(0.0195989 0 2.31141e-05)
(0.0195536 0 0.000348505)
(0.019401 0 0.000636675)
(0.0191541 0 0.000886215)
(0.0188258 0 0.00109683)
(0.0184294 0 0.00126919)
(0.0179776 0 0.00140484)
(0.0174826 0 0.00150594)
(0.016956 0 0.0015752)
(0.0164081 0 0.00161564)
(0.0158485 0 0.00163053)
(0.0152856 0 0.00162319)
(0.0147266 0 0.00159693)
(0.0141779 0 0.00155498)
(0.0136444 0 0.00150036)
(0.0131304 0 0.00143587)
(0.012639 0 0.00136407)
(0.0121726 0 0.00128723)
(0.0117328 0 0.00120733)
(0.0113205 0 0.00112608)
(0.0109362 0 0.00104491)
(0.0105797 0 0.000965002)
(0.0102506 0 0.000887294)
(0.00994814 0 0.000812518)
(0.00967118 0 0.00074122)
(0.00941857 0 0.00067378)
(0.00918897 0 0.000610441)
(0.00898096 0 0.000551328)
(0.0087931 0 0.000496468)
(0.00862392 0 0.000445813)
(0.00847199 0 0.000399252)
(0.00833592 0 0.000356628)
(0.00821435 0 0.000317752)
(0.00810602 0 0.000282409)
(0.00800971 0 0.00025037)
(0.00792431 0 0.0002214)
(0.00784878 0 0.00019526)
(0.00778214 0 0.000171717)
(0.00772353 0 0.000150542)
(0.00767213 0 0.000131515)
(0.00762723 0 0.000114426)
(0.00758816 0 9.90785e-05)
(0.00755434 0 8.52853e-05)
(0.00752524 0 7.28728e-05)
(0.00750039 0 6.16792e-05)
(0.00747939 0 5.15538e-05)
(0.00746188 0 4.2357e-05)
(0.00744754 0 3.39593e-05)
(0.00743611 0 2.62403e-05)
(0.00742736 0 1.90883e-05)
(0.00742111 0 1.23991e-05)
(0.00741719 0 6.07546e-06)
(0.0074155 0 2.66915e-08)
(0.00741595 0 -5.83162e-06)
(0.00741848 0 -1.15823e-05)
(0.00742306 0 -1.73088e-05)
(0.0074297 0 -2.3093e-05)
(0.00743841 0 -2.90169e-05)
(0.00744927 0 -3.51637e-05)
(0.00746236 0 -4.16195e-05)
(0.0074778 0 -4.84743e-05)
(0.00749573 0 -5.58237e-05)
(0.00751635 0 -6.377e-05)
(0.00753987 0 -7.24245e-05)
(0.00756657 0 -8.19094e-05)
(0.00759673 0 -9.23597e-05)
(0.00763072 0 -0.000103926)
(0.00766893 0 -0.000116779)
(0.00771185 0 -0.00013111)
(0.00776001 0 -0.00014714)
(0.00781401 0 -0.000165119)
(0.00787456 0 -0.000185337)
(0.00794247 0 -0.000208133)
(0.00801865 0 -0.000233897)
(0.00810417 0 -0.000263092)
(0.00820024 0 -0.000296258)
(0.00830826 0 -0.000334038)
(0.00842985 0 -0.000377199)
(0.0085669 0 -0.000426658)
(0.0087216 0 -0.000483523)
(0.0088965 0 -0.000549139)
(0.00909461 0 -0.00062515)
(0.00931948 0 -0.000713588)
(0.00957531 0 -0.000816977)
(0.00986714 0 -0.000938497)
(0.010201 0 -0.00108219)
(0.0105844 0 -0.00125329)
(0.0110263 0 -0.00145866)
(0.0115381 0 -0.00170755)
(0.0121343 0 -0.00201275)
(0.0128334 0 -0.00239257)
(0.0136598 0 -0.00287428)
(0.0146452 0 -0.00350026)
(0.0158309 0 -0.00433905)
(0.0172661 0 -0.00550496)
(0.0189984 0 -0.00718992)
(0.0210446 0 -0.00971035)
(0.0233086 0 -0.0135734)
(0.0253097 0 -0.0195328)
(0.0255157 0 -0.0283017)
(0.0212936 0 -0.0387453)
(0.0122061 0 -0.0457141)
(0.000717428 0 -0.0465063)
(-0.00909812 0 -0.0402191)
(-0.0135803 0 -0.0296046)
(-0.0133655 0 -0.0204405)
(-0.0112203 0 -0.0140964)
(-0.00878326 0 -0.00992157)
(-0.0065849 0 -0.00716732)
(-0.00474246 0 -0.00530899)
(-0.00324388 0 -0.00400625)
(-0.00202993 0 -0.00304737)
(-0.00103862 0 -0.00230624)
(-0.000482061 0 -0.00171357)
(3.18415e-05 0 -0.000125593)
(7.93129e-05 0 -0.000249726)
(0.000186841 0 -0.000466851)
(0.000364927 0 -0.000774076)
(0.00063966 0 -0.00116469)
(0.00103493 0 -0.0016275)
(0.00157021 0 -0.00214624)
(0.00225931 0 -0.0026996)
(0.00310895 0 -0.00326186)
(0.00411754 0 -0.00380429)
(0.00527448 0 -0.00429719)
(0.00656032 0 -0.00471245)
(0.00794782 0 -0.00502606)
(0.00940379 0 -0.00522031)
(0.0108914 0 -0.00528513)
(0.012373 0 -0.00521861)
(0.0138122 0 -0.00502641)
(0.0151759 0 -0.00472067)
(0.0164362 0 -0.0043183)
(0.0175706 0 -0.00383926)
(0.0185626 0 -0.00330485)
(0.0194016 0 -0.00273625)
(0.0200826 0 -0.0021534)
(0.0206052 0 -0.00157414)
(0.020973 0 -0.0010137)
(0.0211933 0 -0.000484395)
(0.0212755 0 4.5387e-06)
(0.0212316 0 0.00044705)
(0.021074 0 0.000839568)
(0.0208163 0 0.00118014)
(0.0204724 0 0.00146828)
(0.020056 0 0.00170487)
(0.0195806 0 0.00189187)
(0.019059 0 0.00203215)
(0.0185033 0 0.00212925)
(0.0179245 0 0.00218723)
(0.0173326 0 0.00221039)
(0.0167364 0 0.00220321)
(0.0161437 0 0.00217011)
(0.0155612 0 0.00211541)
(0.0149942 0 0.00204321)
(0.0144471 0 0.0019573)
(0.0139236 0 0.00186114)
(0.0134261 0 0.00175784)
(0.0129564 0 0.0016501)
(0.0125157 0 0.00154027)
(0.0121043 0 0.00143032)
(0.0117224 0 0.00132188)
(0.0113695 0 0.00121627)
(0.0110447 0 0.00111449)
(0.0107471 0 0.00101733)
(0.0104753 0 0.000925325)
(0.0102281 0 0.000838826)
(0.010004 0 0.000758022)
(0.00980132 0 0.00068297)
(0.00961869 0 0.000613616)
(0.00945453 0 0.000549822)
(0.00930738 0 0.000491384)
(0.0091758 0 0.00043805)
(0.00905845 0 0.000389536)
(0.00895403 0 0.000345533)
(0.00886135 0 0.000305725)
(0.0087793 0 0.00026979)
(0.00870684 0 0.000237409)
(0.00864304 0 0.000208272)
(0.00858703 0 0.000182081)
(0.00853803 0 0.000158549)
(0.00849533 0 0.000137407)
(0.00845831 0 0.000118401)
(0.0084264 0 0.000101293)
(0.00839909 0 8.58608e-05)
(0.00837594 0 7.18995e-05)
(0.00835657 0 5.92175e-05)
(0.00834063 0 4.76375e-05)
(0.00832784 0 3.69947e-05)
(0.00831795 0 2.7136e-05)
(0.00831075 0 1.79186e-05)
(0.00830608 0 9.20907e-06)
(0.00830381 0 8.82396e-07)
(0.00830384 0 -7.17749e-06)
(0.0083061 0 -1.50836e-05)
(0.00831057 0 -2.29496e-05)
(0.00831724 0 -3.08871e-05)
(0.00832614 0 -3.90079e-05)
(0.00833731 0 -4.74256e-05)
(0.00835087 0 -5.62575e-05)
(0.00836691 0 -6.56257e-05)
(0.0083856 0 -7.56599e-05)
(0.00840714 0 -8.64989e-05)
(0.00843173 0 -9.82931e-05)
(0.00845966 0 -0.000111207)
(0.00849124 0 -0.000125423)
(0.00852683 0 -0.000141144)
(0.00856685 0 -0.000158598)
(0.00861177 0 -0.000178042)
(0.00866215 0 -0.000199769)
(0.00871861 0 -0.000224115)
(0.00878186 0 -0.000251467)
(0.00885272 0 -0.00028227)
(0.0089321 0 -0.000317044)
(0.00902108 0 -0.000356396)
(0.00912087 0 -0.00040104)
(0.00923285 0 -0.000451817)
(0.00935862 0 -0.000509729)
(0.00950001 0 -0.000575971)
(0.00965916 0 -0.000651979)
(0.00983851 0 -0.000739492)
(0.0100409 0 -0.000840628)
(0.0102697 0 -0.000957991)
(0.0105288 0 -0.00109481)
(0.0108227 0 -0.00125513)
(0.0111569 0 -0.00144408)
(0.0115379 0 -0.00166827)
(0.0119734 0 -0.00193632)
(0.0124727 0 -0.00225977)
(0.0130471 0 -0.00265432)
(0.01371 0 -0.00314199)
(0.0144772 0 -0.00375436)
(0.0153665 0 -0.00453786)
(0.0163946 0 -0.00556194)
(0.0175704 0 -0.00693104)
(0.0188778 0 -0.00879979)
(0.0202408 0 -0.0113871)
(0.0214565 0 -0.0149772)
(0.0220589 0 -0.0198646)
(0.0211097 0 -0.0260923)
(0.0173696 0 -0.032686)
(0.0107457 0 -0.0370901)
(0.00272947 0 -0.0376398)
(-0.00439707 0 -0.0338064)
(-0.00835635 0 -0.0272518)
(-0.00936522 0 -0.0208026)
(-0.00869599 0 -0.0156222)
(-0.00734846 0 -0.0117503)
(-0.00583633 0 -0.00891998)
(-0.00439257 0 -0.00684742)
(-0.00310789 0 -0.00530232)
(-0.00199523 0 -0.00411738)
(-0.00103937 0 -0.00318071)
(-0.000488275 0 -0.00242395)
(2.79883e-05 0 -0.000176724)
(7.1972e-05 0 -0.000333113)
(0.000175135 0 -0.000610119)
(0.000353416 0 -0.0010048)
(0.000636025 0 -0.00150872)
(0.00104988 0 -0.0021075)
(0.00161727 0 -0.00277999)
(0.00235423 0 -0.00349818)
(0.00326873 0 -0.00422812)
(0.00435912 0 -0.00493178)
(0.00561328 0 -0.0055699)
(0.00700878 0 -0.00610545)
(0.00851422 0 -0.00650711)
(0.0100915 0 -0.00675219)
(0.011699 0 -0.00682841)
(0.0132943 0 -0.00673432)
(0.0148374 0 -0.00647845)
(0.0162931 0 -0.00607753)
(0.0176317 0 -0.00555422)
(0.0188305 0 -0.00493471)
(0.0198736 0 -0.00424654)
(0.0207515 0 -0.00351676)
(0.0214602 0 -0.00277053)
(0.0220011 0 -0.0020302)
(0.0223793 0 -0.00131468)
(0.0226032 0 -0.000639172)
(0.0226837 0 -1.50931e-05)
(0.0226332 0 0.000550035)
(0.0224652 0 0.00105167)
(0.022194 0 0.00148736)
(0.0218339 0 0.00185652)
(0.0213994 0 0.00216024)
(0.0209043 0 0.002401)
(0.0203618 0 0.00258238)
(0.0197842 0 0.00270885)
(0.019183 0 0.00278547)
(0.0185682 0 0.00281769)
(0.017949 0 0.0028111)
(0.0173333 0 0.0027713)
(0.0167278 0 0.00270374)
(0.0161383 0 0.0026136)
(0.0155691 0 0.00250569)
(0.0150241 0 0.00238443)
(0.0145058 0 0.00225375)
(0.0140161 0 0.00211714)
(0.0135561 0 0.00197759)
(0.0131266 0 0.00183765)
(0.0127274 0 0.00169942)
(0.0123581 0 0.00156461)
(0.0120181 0 0.00143454)
(0.0117062 0 0.00131024)
(0.0114212 0 0.00119241)
(0.0111618 0 0.00108153)
(0.0109263 0 0.000977866)
(0.0107133 0 0.000881505)
(0.0105211 0 0.000792395)
(0.0103482 0 0.000710375)
(0.0101932 0 0.000635194)
(0.0100544 0 0.00056654)
(0.00993053 0 0.000504056)
(0.00982022 0 0.000447353)
(0.00972223 0 0.000396032)
(0.00963539 0 0.000349682)
(0.00955864 0 0.000307899)
(0.00949099 0 0.000270288)
(0.00943153 0 0.000236466)
(0.00937945 0 0.000206068)
(0.00933402 0 0.000178748)
(0.00929456 0 0.000154181)
(0.00926048 0 0.000132062)
(0.00923125 0 0.000112107)
(0.00920641 0 9.4052e-05)
(0.00918555 0 7.76506e-05)
(0.0091683 0 6.26752e-05)
(0.00915438 0 4.89143e-05)
(0.0091435 0 3.61711e-05)
(0.00913546 0 2.4262e-05)
(0.00913007 0 1.30154e-05)
(0.0091272 0 2.27032e-06)
(0.00912674 0 -8.12331e-06)
(0.00912862 0 -1.83108e-05)
(0.00913279 0 -2.84368e-05)
(0.00913926 0 -3.86439e-05)
(0.00914804 0 -4.90752e-05)
(0.00915918 0 -5.98756e-05)
(0.00917278 0 -7.11944e-05)
(0.00918895 0 -8.31871e-05)
(0.00920784 0 -9.60184e-05)
(0.00922965 0 -0.000109864)
(0.00925459 0 -0.000124914)
(0.00928294 0 -0.000141376)
(0.009315 0 -0.00015948)
(0.00935114 0 -0.00017948)
(0.00939177 0 -0.000201662)
(0.00943736 0 -0.000226347)
(0.00948846 0 -0.0002539)
(0.00954566 0 -0.00028474)
(0.00960968 0 -0.000319344)
(0.00968129 0 -0.000358263)
(0.0097614 0 -0.000402139)
(0.00985103 0 -0.000451714)
(0.00995132 0 -0.000507861)
(0.0100636 0 -0.000571605)
(0.0101894 0 -0.000644159)
(0.0103303 0 -0.000726964)
(0.0104884 0 -0.000821745)
(0.0106659 0 -0.000930578)
(0.0108652 0 -0.00105598)
(0.0110894 0 -0.00120102)
(0.0113418 0 -0.00136948)
(0.0116261 0 -0.00156606)
(0.0119469 0 -0.00179669)
(0.0123092 0 -0.00206889)
(0.0127186 0 -0.00239236)
(0.0131818 0 -0.00277983)
(0.0137057 0 -0.00324823)
(0.0142976 0 -0.00382046)
(0.0149641 0 -0.00452792)
(0.0157091 0 -0.00541409)
(0.0165289 0 -0.00653909)
(0.0174044 0 -0.00798491)
(0.0182844 0 -0.00985886)
(0.0190605 0 -0.0122899)
(0.0195268 0 -0.0154062)
(0.019326 0 -0.0192711)
(0.0179107 0 -0.0237195)
(0.0147156 0 -0.0280433)
(0.00979816 0 -0.030882)
(0.00406771 0 -0.0312607)
(-0.00114786 0 -0.0289159)
(-0.00453848 0 -0.0247243)
(-0.006032 0 -0.0201835)
(-0.00621269 0 -0.0161211)
(-0.00565469 0 -0.0127756)
(-0.00474967 0 -0.0101188)
(-0.00373207 0 -0.00803344)
(-0.00272916 0 -0.00638871)
(-0.00179503 0 -0.00507108)
(-0.000949509 0 -0.00399494)
(-0.000450552 0 -0.00310113)
(1.68471e-05 0 -0.000218095)
(4.97208e-05 0 -0.00040625)
(0.00013627 0 -0.000745775)
(0.000302559 0 -0.00123392)
(0.000581379 0 -0.00186059)
(0.00100311 0 -0.00260806)
(0.00159342 0 -0.00344979)
(0.00237111 0 -0.00435024)
(0.00334574 0 -0.00526599)
(0.00451568 0 -0.00614817)
(0.00586694 0 -0.00694631)
(0.00737338 0 -0.00761296)
(0.00899839 0 -0.00810847)
(0.0106979 0 -0.00840475)
(0.0124241 0 -0.00848754)
(0.0141294 0 -0.00835669)
(0.0157698 0 -0.00802474)
(0.0173073 0 -0.00751434)
(0.0187113 0 -0.00685512)
(0.0199593 0 -0.00608052)
(0.0210365 0 -0.00522509)
(0.0219353 0 -0.00432218)
(0.0226538 0 -0.00340245)
(0.0231956 0 -0.00249272)
(0.023568 0 -0.00161548)
(0.0237811 0 -0.000788583)
(0.0238475 0 -2.53347e-05)
(0.0237804 0 0.000665521)
(0.0235945 0 0.00127861)
(0.0233047 0 0.00181112)
(0.0229259 0 0.00226247)
(0.022473 0 0.00263407)
(0.02196 0 0.00292901)
(0.0214003 0 0.00315171)
(0.0208063 0 0.00330757)
(0.0201895 0 0.00340276)
(0.0195598 0 0.00344383)
(0.0189265 0 0.00343758)
(0.0182973 0 0.00339075)
(0.0176789 0 0.00330995)
(0.017077 0 0.00320144)
(0.016496 0 0.00307105)
(0.0159395 0 0.00292414)
(0.0154101 0 0.0027655)
(0.0149099 0 0.00259938)
(0.0144398 0 0.00242944)
(0.0140006 0 0.0022588)
(0.0135922 0 0.00209006)
(0.0132142 0 0.0019253)
(0.0128658 0 0.0017662)
(0.0125461 0 0.00161399)
(0.0122538 0 0.0014696)
(0.0119874 0 0.00133361)
(0.0117455 0 0.00120638)
(0.0115266 0 0.00108803)
(0.0113289 0 0.000978508)
(0.0111509 0 0.000877641)
(0.0109912 0 0.000785132)
(0.0108481 0 0.00070061)
(0.0107203 0 0.000623644)
(0.0106064 0 0.000553767)
(0.0105051 0 0.000490492)
(0.0104153 0 0.000433324)
(0.0103359 0 0.000381768)
(0.0102658 0 0.000335343)
(0.0102041 0 0.00029358)
(0.01015 0 0.000256034)
(0.0101028 0 0.00022228)
(0.0100617 0 0.00019192)
(0.0100262 0 0.00016458)
(0.00999561 0 0.000139912)
(0.00996958 0 0.00011759)
(0.00994764 0 9.73126e-05)
(0.00992943 0 7.88006e-05)
(0.00991463 0 6.17939e-05)
(0.00990296 0 4.60506e-05)
(0.00989421 0 3.13451e-05)
(0.00988818 0 1.74664e-05)
(0.00988473 0 4.21674e-06)
(0.00988374 0 -8.58959e-06)
(0.00988514 0 -2.11311e-05)
(0.00988887 0 -3.3584e-05)
(0.00989493 0 -4.61226e-05)
(0.00990333 0 -5.89212e-05)
(0.00991413 0 -7.21566e-05)
(0.00992739 0 -8.60103e-05)
(0.00994324 0 -0.000100671)
(0.00996181 0 -0.000116338)
(0.0099833 0 -0.000133225)
(0.0100079 0 -0.000151559)
(0.0100359 0 -0.000171591)
(0.0100676 0 -0.000193596)
(0.0101033 0 -0.000217879)
(0.0101434 0 -0.000244779)
(0.0101884 0 -0.00027468)
(0.0102388 0 -0.000308016)
(0.0102952 0 -0.000345278)
(0.0103581 0 -0.000387031)
(0.0104285 0 -0.000433921)
(0.010507 0 -0.000486697)
(0.0105947 0 -0.000546224)
(0.0106926 0 -0.000613514)
(0.0108018 0 -0.000689748)
(0.0109238 0 -0.000776317)
(0.01106 0 -0.000874865)
(0.0112121 0 -0.000987347)
(0.0113821 0 -0.0011161)
(0.011572 0 -0.00126393)
(0.0117842 0 -0.00143424)
(0.0120214 0 -0.00163119)
(0.0122864 0 -0.00185988)
(0.0125825 0 -0.00212664)
(0.012913 0 -0.00243941)
(0.0132815 0 -0.00280823)
(0.0136913 0 -0.00324594)
(0.0141453 0 -0.00376909)
(0.014645 0 -0.00439921)
(0.0151891 0 -0.0051644)
(0.0157707 0 -0.00610111)
(0.016373 0 -0.00725598)
(0.0169617 0 -0.00868647)
(0.0174739 0 -0.0104582)
(0.0178021 0 -0.0126349)
(0.0177763 0 -0.0152539)
(0.0171496 0 -0.0182762)
(0.0156143 0 -0.0214981)
(0.0129251 0 -0.0244295)
(0.00918796 0 -0.0263144)
(0.00496493 0 -0.0265896)
(0.00106278 0 -0.0251287)
(-0.00179633 0 -0.0223696)
(-0.00340603 0 -0.0191448)
(-0.00403548 0 -0.0160064)
(-0.00400028 0 -0.013215)
(-0.0035678 0 -0.0108424)
(-0.00293103 0 -0.0088666)
(-0.00221577 0 -0.0072272)
(-0.00149207 0 -0.00585622)
(-0.000800146 0 -0.00469452)
(-0.000382942 0 -0.0036944)
(-1.95828e-06 0 -0.000239279)
(1.17853e-05 0 -0.000457345)
(6.88549e-05 0 -0.000861497)
(0.000210533 0 -0.00144925)
(0.000473714 0 -0.00220886)
(0.000892749 0 -0.00311912)
(0.00149736 0 -0.00414758)
(0.00230973 0 -0.0052502)
(0.00334144 0 -0.00637256)
(0.00459091 0 -0.00745307)
(0.00604184 0 -0.00842793)
(0.00766346 0 -0.00923744)
(0.00941264 0 -0.0098323)
(0.0112379 0 -0.0101786)
(0.013084 0 -0.0102606)
(0.0148973 0 -0.0100806)
(0.016629 0 -0.00965675)
(0.0182388 0 -0.00901928)
(0.0196953 0 -0.00820635)
(0.0209769 0 -0.0072599)
(0.0220707 0 -0.00622233)
(0.0229718 0 -0.00513383)
(0.0236814 0 -0.00403068)
(0.024206 0 -0.00294415)
(0.0245555 0 -0.00190003)
(0.0247425 0 -0.00091849)
(0.0247814 0 -1.43006e-05)
(0.0246868 0 0.00080298)
(0.0244743 0 0.00152738)
(0.0241597 0 0.00215588)
(0.0237584 0 0.00268814)
(0.0232856 0 0.00312609)
(0.0227555 0 0.00347355)
(0.0221814 0 0.00373589)
(0.0215755 0 0.00391957)
(0.020949 0 0.00403187)
(0.0203117 0 0.00408054)
(0.0196723 0 0.00407353)
(0.0190384 0 0.00401878)
(0.0184165 0 0.003924)
(0.0178117 0 0.00379651)
(0.0172285 0 0.00364317)
(0.0166702 0 0.00347022)
(0.0161394 0 0.00328331)
(0.0156378 0 0.00308742)
(0.0151664 0 0.00288686)
(0.0147259 0 0.00268532)
(0.0143161 0 0.00248585)
(0.0139368 0 0.00229095)
(0.013587 0 0.0021026)
(0.0132659 0 0.00192228)
(0.0129721 0 0.0017511)
(0.0127042 0 0.00158978)
(0.0124608 0 0.00143875)
(0.0122403 0 0.00129817)
(0.0120411 0 0.00116802)
(0.0118617 0 0.00104808)
(0.0117006 0 0.000938024)
(0.0115561 0 0.000837418)
(0.011427 0 0.000745764)
(0.0113119 0 0.000662517)
(0.0112094 0 0.000587104)
(0.0111185 0 0.000518942)
(0.011038 0 0.00045745)
(0.0109669 0 0.000402058)
(0.0109043 0 0.000352215)
(0.0108493 0 0.000307391)
(0.0108013 0 0.000267085)
(0.0107594 0 0.000230824)
(0.0107231 0 0.000198165)
(0.0106918 0 0.000168693)
(0.0106652 0 0.000142025)
(0.0106426 0 0.0001178)
(0.0106238 0 9.56883e-05)
(0.0106084 0 7.53797e-05)
(0.0105962 0 5.65876e-05)
(0.0105869 0 3.9044e-05)
(0.0105803 0 2.24984e-05)
(0.0105763 0 6.71542e-06)
(0.0105748 0 -8.52618e-06)
(0.0105757 0 -2.34385e-05)
(0.0105788 0 -3.82293e-05)
(0.0105843 0 -5.31042e-05)
(0.0105921 0 -6.82687e-05)
(0.0106023 0 -8.39306e-05)
(0.0106149 0 -0.000100303)
(0.01063 0 -0.000117607)
(0.0106478 0 -0.000136076)
(0.0106684 0 -0.000155957)
(0.0106921 0 -0.000177516)
(0.010719 0 -0.000201044)
(0.0107495 0 -0.000226857)
(0.0107839 0 -0.000255308)
(0.0108225 0 -0.000286787)
(0.0108658 0 -0.000321732)
(0.0109142 0 -0.000360639)
(0.0109682 0 -0.000404067)
(0.0110286 0 -0.000452654)
(0.0110958 0 -0.000507131)
(0.0111707 0 -0.000568336)
(0.0112541 0 -0.000637239)
(0.011347 0 -0.000714962)
(0.0114503 0 -0.000802812)
(0.0115651 0 -0.000902315)
(0.0116929 0 -0.00101527)
(0.0118348 0 -0.00114378)
(0.0119925 0 -0.00129037)
(0.0121676 0 -0.00145803)
(0.0123619 0 -0.00165033)
(0.0125771 0 -0.0018716)
(0.0128152 0 -0.00212708)
(0.0130782 0 -0.00242317)
(0.0133677 0 -0.00276772)
(0.013685 0 -0.00317046)
(0.0140309 0 -0.00364346)
(0.0144044 0 -0.00420175)
(0.0148026 0 -0.00486404)
(0.0152182 0 -0.00565347)
(0.0156378 0 -0.00659812)
(0.0160379 0 -0.00773092)
(0.0163792 0 -0.00908797)
(0.0166002 0 -0.0107036)
(0.0166093 0 -0.0125997)
(0.016279 0 -0.014766)