/*--------------------------------*- C++ -*----------------------------------*\
  =========                 |
  \\      /  F ield         | OpenFOAM: The Open Source CFD Toolbox
   \\    /   O peration     | Website:  https://openfoam.org
    \\  /    A nd           | Version:  12
     \\/     M anipulation  |
\*---------------------------------------------------------------------------*/
FoamFile
{
    format      ascii;
    class       volVectorField;
    location    "30";
    object      UMean;
}
// * * * * * * * * * * * * * * * * * * * * * * * * * * * * * * * * * * * * * //

dimensions      [0 1 -1 0 0 0 0];

internalField   nonuniform List<vector> 
4480
(
(5.69606e-05 0 -5.80212e-05)
(0.000125567 0 -8.50198e-05)
(0.000264866 0 -0.00011091)
(0.000443342 0 -0.000140773)
(0.000664157 0 -0.00017344)
(0.000932158 0 -0.000208001)
(0.00125011 0 -0.000243693)
(0.00161905 0 -0.000279472)
(0.0020383 0 -0.000313964)
(0.00250506 0 -0.000345586)
(0.00301415 0 -0.00037269)
(0.00355809 0 -0.000393719)
(0.00412725 0 -0.000407368)
(0.0047104 0 -0.000412712)
(0.00529526 0 -0.000409302)
(0.00586929 0 -0.000397196)
(0.00642035 0 -0.000376939)
(0.00693742 0 -0.000349493)
(0.00741109 0 -0.000316134)
(0.00783393 0 -0.000278333)
(0.0082007 0 -0.000237638)
(0.00850838 0 -0.000195565)
(0.00875605 0 -0.000153519)
(0.00894464 0 -0.000112724)
(0.00907671 0 -7.4189e-05)
(0.00915603 0 -3.86668e-05)
(0.0091874 0 -6.64482e-06)
(0.00917604 0 2.16019e-05)
(0.00912731 0 4.59461e-05)
(0.00904684 0 6.63996e-05)
(0.00894009 0 8.30751e-05)
(0.0088123 0 9.61725e-05)
(0.00866838 0 0.000105959)
(0.0085128 0 0.000112748)
(0.00834958 0 0.000116877)
(0.00818223 0 0.000118697)
(0.00801379 0 0.000118556)
(0.00784679 0 0.000116787)
(0.0076833 0 0.000113702)
(0.00752498 0 0.000109587)
(0.0073731 0 0.000104699)
(0.00722859 0 9.92603e-05)
(0.00709207 0 9.34661e-05)
(0.00696393 0 8.74785e-05)
(0.00684435 0 8.14324e-05)
(0.00673331 0 7.54367e-05)
(0.00663069 0 6.95769e-05)
(0.00653623 0 6.39183e-05)
(0.00644963 0 5.8509e-05)
(0.00637048 0 5.33822e-05)
(0.00629839 0 4.85585e-05)
(0.00623291 0 4.40486e-05)
(0.00617358 0 3.98549e-05)
(0.00611998 0 3.59738e-05)
(0.00607164 0 3.23967e-05)
(0.00602817 0 2.91113e-05)
(0.00598915 0 2.61031e-05)
(0.00595419 0 2.33555e-05)
(0.00592295 0 2.08512e-05)
(0.00589509 0 1.85724e-05)
(0.00587031 0 1.65013e-05)
(0.00584832 0 1.46203e-05)
(0.00582886 0 1.29122e-05)
(0.00581171 0 1.13608e-05)
(0.00579665 0 9.95035e-06)
(0.0057835 0 8.66611e-06)
(0.00577207 0 7.49409e-06)
(0.00576224 0 6.42114e-06)
(0.00575386 0 5.43495e-06)
(0.00574682 0 4.52388e-06)
(0.00574101 0 3.67703e-06)
(0.00573637 0 2.88414e-06)
(0.00573281 0 2.13547e-06)
(0.00573029 0 1.42178e-06)
(0.00572875 0 7.34222e-07)
(0.00572817 0 6.43244e-08)
(0.00572853 0 -5.96099e-07)
(0.00572982 0 -1.25495e-06)
(0.00573204 0 -1.9201e-06)
(0.00573521 0 -2.59973e-06)
(0.00573935 0 -3.30226e-06)
(0.00574451 0 -4.03633e-06)
(0.00575072 0 -4.81107e-06)
(0.00575806 0 -5.63616e-06)
(0.00576661 0 -6.52196e-06)
(0.00577645 0 -7.47969e-06)
(0.0057877 0 -8.52159e-06)
(0.00580048 0 -9.6611e-06)
(0.00581494 0 -1.09131e-05)
(0.00583126 0 -1.22942e-05)
(0.00584962 0 -1.38231e-05)
(0.00587025 0 -1.55206e-05)
(0.00589339 0 -1.74108e-05)
(0.00591935 0 -1.95206e-05)
(0.00594845 0 -2.18812e-05)
(0.00598106 0 -2.45283e-05)
(0.00601762 0 -2.75033e-05)
(0.00605863 0 -3.08542e-05)
(0.00610463 0 -3.4637e-05)
(0.00615629 0 -3.89174e-05)
(0.00621436 0 -4.37727e-05)
(0.0062797 0 -4.92947e-05)
(0.00635332 0 -5.55925e-05)
(0.00643639 0 -6.27968e-05)
(0.0065303 0 -7.10654e-05)
(0.00663665 0 -8.0589e-05)
(0.00675735 0 -9.16007e-05)
(0.00689468 0 -0.000104386)
(0.00705135 0 -0.000119299)
(0.00723063 0 -0.000136779)
(0.00743644 0 -0.000157374)
(0.00767362 0 -0.000181773)
(0.00794805 0 -0.00021084)
(0.00826702 0 -0.000245656)
(0.00863956 0 -0.000287558)
(0.00907691 0 -0.000338165)
(0.00959306 0 -0.000399352)
(0.0102053 0 -0.00047316)
(0.0109355 0 -0.000561999)
(0.0118135 0 -0.000671238)
(0.012876 0 -0.000818737)
(0.0141381 0 -0.00105363)
(0.0156227 0 -0.00150906)
(0.0181231 0 -0.00283117)
(0.0256273 0 -0.00856226)
(0.0394966 0 -0.0314199)
(0.0439005 0 -0.0801575)
(0.0208625 0 -0.100963)
(-0.00846779 0 -0.103846)
(-0.0342134 0 -0.0846596)
(-0.0303619 0 -0.0327415)
(-0.0155807 0 -0.00913703)
(-0.00770787 0 -0.00295421)
(-0.00527817 0 -0.00146758)
(-0.00394247 0 -0.00095957)
(-0.00282261 0 -0.00071342)
(-0.00189386 0 -0.000565696)
(-0.00114275 0 -0.000454205)
(-0.000547214 0 -0.000358373)
(-0.000250473 0 -0.000247304)
(8.13351e-05 0 -0.000125876)
(0.000174301 0 -0.000179194)
(0.000350451 0 -0.000236084)
(0.000570591 0 -0.000298679)
(0.00084041 0 -0.000366821)
(0.00116604 0 -0.000439339)
(0.00155092 0 -0.000514542)
(0.00199641 0 -0.000590102)
(0.00250169 0 -0.000663068)
(0.0030634 0 -0.000730064)
(0.00367533 0 -0.000787581)
(0.0043285 0 -0.000832303)
(0.00501148 0 -0.000861447)
(0.00571092 0 -0.000873041)
(0.00641233 0 -0.000866118)
(0.00710088 0 -0.000840795)
(0.00776228 0 -0.000798217)
(0.00838356 0 -0.000740418)
(0.00895362 0 -0.000670094)
(0.00946371 0 -0.000590352)
(0.00990759 0 -0.000504459)
(0.0102816 0 -0.000415619)
(0.0105845 0 -0.000326789)
(0.0108173 0 -0.000240552)
(0.0109827 0 -0.000159029)
(0.0110851 0 -8.383e-05)
(0.0111299 0 -1.60085e-05)
(0.0111232 0 4.38616e-05)
(0.0110714 0 9.55128e-05)
(0.010981 0 0.000138951)
(0.0108585 0 0.00017441)
(0.0107102 0 0.000202308)
(0.0105418 0 0.000223206)
(0.0103588 0 0.000237758)
(0.010166 0 0.000246678)
(0.00996761 0 0.000250702)
(0.00976732 0 0.000250562)
(0.00956823 0 0.000246961)
(0.00937288 0 0.000240559)
(0.00918333 0 0.00023196)
(0.00900116 0 0.000221706)
(0.00882754 0 0.000210271)
(0.00866328 0 0.000198068)
(0.0085089 0 0.00018544)
(0.00836465 0 0.000172676)
(0.00823055 0 0.000160007)
(0.00810649 0 0.000147616)
(0.00799219 0 0.000135644)
(0.0078873 0 0.000124192)
(0.00779137 0 0.000113333)
(0.00770392 0 0.000103112)
(0.00762443 0 9.35516e-05)
(0.00755237 0 8.4659e-05)
(0.00748722 0 7.64266e-05)
(0.00742844 0 6.88369e-05)
(0.00737554 0 6.18647e-05)
(0.00732804 0 5.54792e-05)
(0.00728546 0 4.96459e-05)
(0.00724739 0 4.43283e-05)
(0.00721342 0 3.94888e-05)
(0.00718319 0 3.50897e-05)
(0.00715635 0 3.10939e-05)
(0.0071326 0 2.74653e-05)
(0.00711164 0 2.41692e-05)
(0.00709323 0 2.11725e-05)
(0.00707714 0 1.84439e-05)
(0.00706316 0 1.59537e-05)
(0.00705111 0 1.36741e-05)
(0.00704083 0 1.15789e-05)
(0.00703218 0 9.64355e-06)
(0.00702504 0 7.84486e-06)
(0.00701931 0 6.16106e-06)
(0.0070149 0 4.57151e-06)
(0.00701175 0 3.05659e-06)
(0.0070098 0 1.59757e-06)
(0.00700902 0 1.76455e-07)
(0.00700937 0 -1.22415e-06)
(0.00701086 0 -2.62113e-06)
(0.00701347 0 -4.03114e-06)
(0.00701724 0 -5.47133e-06)
(0.00702218 0 -6.95954e-06)
(0.00702835 0 -8.51417e-06)
(0.0070358 0 -1.01545e-05)
(0.00704462 0 -1.19011e-05)
(0.0070549 0 -1.37757e-05)
(0.00706674 0 -1.58022e-05)
(0.00708028 0 -1.80064e-05)
(0.00709567 0 -2.04167e-05)
(0.0071131 0 -2.30645e-05)
(0.00713276 0 -2.5985e-05)
(0.00715488 0 -2.92174e-05)
(0.00717974 0 -3.2806e-05)
(0.00720764 0 -3.68011e-05)
(0.00723892 0 -4.12601e-05)
(0.00727399 0 -4.62483e-05)
(0.00731329 0 -5.18412e-05)
(0.00735733 0 -5.81259e-05)
(0.00740672 0 -6.52036e-05)
(0.00746212 0 -7.31922e-05)
(0.00752432 0 -8.22298e-05)
(0.00759421 0 -9.24795e-05)
(0.00767283 0 -0.000104134)
(0.00776137 0 -0.000117423)
(0.00786125 0 -0.000132621)
(0.00797409 0 -0.000150059)
(0.00810181 0 -0.000170139)
(0.00824668 0 -0.00019335)
(0.0084114 0 -0.000220294)
(0.00859917 0 -0.000251713)
(0.00881386 0 -0.000288536)
(0.00906013 0 -0.000331926)
(0.00934369 0 -0.000383353)
(0.00967154 0 -0.000444693)
(0.0100524 0 -0.000518352)
(0.0104974 0 -0.000607442)
(0.0110205 0 -0.000716042)
(0.0116404 0 -0.000849595)
(0.0123825 0 -0.00101564)
(0.0132836 0 -0.00122554)
(0.0144013 0 -0.0014996)
(0.0158281 0 -0.00188119)
(0.0177102 0 -0.00246645)
(0.020324 0 -0.00346454)
(0.0243966 0 -0.0054548)
(0.0312856 0 -0.0105883)
(0.0387082 0 -0.0255285)
(0.035419 0 -0.0574738)
(0.0178642 0 -0.0752283)
(-0.0051443 0 -0.0771626)
(-0.0243139 0 -0.0607362)
(-0.027869 0 -0.0270032)
(-0.0199231 0 -0.0111124)
(-0.0126991 0 -0.00555498)
(-0.00851303 0 -0.00338428)
(-0.00588215 0 -0.00231596)
(-0.0040286 0 -0.00170901)
(-0.00266051 0 -0.00131919)
(-0.00161786 0 -0.00103118)
(-0.000805482 0 -0.000789906)
(-0.00037566 0 -0.00055994)
(9.70923e-05 0 -0.000258051)
(0.000210425 0 -0.000351)
(0.000416805 0 -0.000455621)
(0.000670215 0 -0.000572028)
(0.000978693 0 -0.00069945)
(0.00135 0 -0.000835682)
(0.00178858 0 -0.000977342)
(0.00229635 0 -0.00111984)
(0.0028727 0 -0.00125751)
(0.00351389 0 -0.00138391)
(0.00421287 0 -0.00149242)
(0.00495934 0 -0.00157678)
(0.0057401 0 -0.00163179)
(0.00653978 0 -0.00165377)
(0.00734171 0 -0.00164093)
(0.00812891 0 -0.00159353)
(0.00888509 0 -0.00151374)
(0.00959551 0 -0.00140536)
(0.0102477 0 -0.00127345)
(0.0108317 0 -0.00112378)
(0.0113407 0 -0.000962436)
(0.0117706 0 -0.000795389)
(0.01212 0 -0.000628144)
(0.01239 0 -0.000465517)
(0.0125838 0 -0.000311479)
(0.012706 0 -0.000169071)
(0.0127628 0 -4.03601e-05)
(0.012761 0 7.34796e-05)
(0.0127078 0 0.000171912)
(0.0126105 0 0.00025491)
(0.0124764 0 0.000322883)
(0.0123125 0 0.000376591)
(0.0121255 0 0.000417062)
(0.0119214 0 0.000445507)
(0.0117056 0 0.000463255)
(0.0114831 0 0.000471681)
(0.011258 0 0.000472155)
(0.0110338 0 0.000466)
(0.0108134 0 0.000454462)
(0.0105994 0 0.000438683)
(0.0103933 0 0.00041969)
(0.0101967 0 0.000398389)
(0.0100106 0 0.000375561)
(0.00983542 0 0.000351868)
(0.00967161 0 0.000327862)
(0.00951922 0 0.000303988)
(0.00937812 0 0.000280601)
(0.00924803 0 0.000257973)
(0.00912857 0 0.000236304)
(0.00901925 0 0.000215736)
(0.00891953 0 0.000196358)
(0.00882885 0 0.000178219)
(0.0087466 0 0.000161335)
(0.00867219 0 0.000145696)
(0.00860504 0 0.000131269)
(0.00854457 0 0.00011801)
(0.00849025 0 0.000105861)
(0.00844154 0 9.47577e-05)
(0.00839796 0 8.46327e-05)
(0.00835907 0 7.54151e-05)
(0.00832443 0 6.70338e-05)
(0.00829367 0 5.94188e-05)
(0.00826643 0 5.2502e-05)
(0.00824238 0 4.62177e-05)
(0.00822124 0 4.05032e-05)
(0.00820275 0 3.52992e-05)
(0.00818667 0 3.05493e-05)
(0.00817279 0 2.62009e-05)
(0.00816094 0 2.22041e-05)
(0.00815095 0 1.85123e-05)
(0.00814268 0 1.50815e-05)
(0.00813602 0 1.18703e-05)
(0.00813087 0 8.83948e-06)
(0.00812716 0 5.95175e-06)
(0.00812481 0 3.1715e-06)
(0.00812379 0 4.64494e-07)
(0.00812406 0 -2.20239e-06)
(0.00812562 0 -4.86141e-06)
(0.00812846 0 -7.54436e-06)
(0.00813261 0 -1.02837e-05)
(0.00813809 0 -1.31131e-05)
(0.00814496 0 -1.60675e-05)
(0.00815329 0 -1.91835e-05)
(0.00816315 0 -2.25e-05)
(0.00817466 0 -2.60585e-05)
(0.00818794 0 -2.99039e-05)
(0.00820314 0 -3.4085e-05)
(0.00822042 0 -3.86556e-05)
(0.00823998 0 -4.36751e-05)
(0.00826206 0 -4.92097e-05)
(0.00828691 0 -5.53337e-05)
(0.00831483 0 -6.21307e-05)
(0.00834616 0 -6.96953e-05)
(0.00838128 0 -7.81354e-05)
(0.00842063 0 -8.75743e-05)
(0.00846473 0 -9.81539e-05)
(0.00851412 0 -0.000110038)
(0.00856948 0 -0.000123416)
(0.00863155 0 -0.000138509)
(0.00870118 0 -0.000155576)
(0.00877936 0 -0.000174922)
(0.00886722 0 -0.000196907)
(0.00896608 0 -0.000221959)
(0.00907746 0 -0.000250592)
(0.00920314 0 -0.00028342)
(0.0093452 0 -0.000321191)
(0.00950607 0 -0.000364814)
(0.00968864 0 -0.000415404)
(0.00989635 0 -0.000474344)
(0.0101333 0 -0.000543355)
(0.0104045 0 -0.000624605)
(0.0107158 0 -0.000720852)
(0.0110749 0 -0.000835644)
(0.0114908 0 -0.00097362)
(0.0119752 0 -0.00114096)
(0.0125433 0 -0.00134612)
(0.0132153 0 -0.00160114)
(0.0140186 0 -0.00192401)
(0.0149927 0 -0.0023436)
(0.0161955 0 -0.00291001)
(0.0177127 0 -0.00371689)
(0.0196662 0 -0.0049446)
(0.0222259 0 -0.00693911)
(0.0256029 0 -0.0103934)
(0.0296868 0 -0.0167983)
(0.0322331 0 -0.0287809)
(0.0277522 0 -0.0461973)
(0.0150537 0 -0.0572938)
(-0.00153351 0 -0.0584992)
(-0.0153523 0 -0.0482571)
(-0.0201323 0 -0.03016)
(-0.0174061 0 -0.0175413)
(-0.0130625 0 -0.0107105)
(-0.00947899 0 -0.00699561)
(-0.00677669 0 -0.00485518)
(-0.00473686 0 -0.00354996)
(-0.00317963 0 -0.00269446)
(-0.0019654 0 -0.0020807)
(-0.000996674 0 -0.00159708)
(-0.000460296 0 -0.00118337)
(0.000108223 0 -0.000409588)
(0.000233922 0 -0.000543267)
(0.000460465 0 -0.000697075)
(0.000736927 0 -0.000870387)
(0.0010732 0 -0.00106155)
(0.00147877 0 -0.00126709)
(0.00195931 0 -0.00148168)
(0.00251767 0 -0.0016981)
(0.00315364 0 -0.0019075)
(0.00386335 0 -0.00209992)
(0.00463897 0 -0.00226514)
(0.0054688 0 -0.00239355)
(0.00633776 0 -0.00247719)
(0.00722823 0 -0.00251051)
(0.00812114 0 -0.00249091)
(0.00899719 0 -0.00241887)
(0.009838 0 -0.00229783)
(0.0106271 0 -0.00213368)
(0.0113507 0 -0.00193413)
(0.011998 0 -0.00170796)
(0.0125617 0 -0.00146434)
(0.0130376 0 -0.00121223)
(0.0134244 0 -0.00095985)
(0.0137236 0 -0.00071439)
(0.0139389 0 -0.000481758)
(0.0140756 0 -0.000266491)
(0.0141405 0 -7.17305e-05)
(0.0141411 0 0.000100705)
(0.0140853 0 0.000249993)
(0.0139811 0 0.000376078)
(0.0138366 0 0.000479554)
(0.0136595 0 0.000561544)
(0.0134569 0 0.000623572)
(0.0132355 0 0.000667446)
(0.0130012 0 0.000695145)
(0.0127594 0 0.000708725)
(0.0125146 0 0.000710239)
(0.0122706 0 0.000701674)
(0.0120307 0 0.000684902)
(0.0117974 0 0.000661644)
(0.0115729 0 0.00063345)
(0.0113585 0 0.000601691)
(0.0111553 0 0.000567552)
(0.0109641 0 0.000532038)
(0.0107852 0 0.00049599)
(0.0106187 0 0.000460088)
(0.0104645 0 0.000424875)
(0.0103223 0 0.000390768)
(0.0101916 0 0.000358078)
(0.010072 0 0.000327024)
(0.00996287 0 0.000297747)
(0.00986358 0 0.000270326)
(0.0097735 0 0.000244788)
(0.00969199 0 0.00022112)
(0.00961839 0 0.000199279)
(0.00955211 0 0.000179197)
(0.00949253 0 0.000160791)
(0.0094391 0 0.000143964)
(0.00939128 0 0.000128615)
(0.00934858 0 0.000114638)
(0.00931054 0 0.000101927)
(0.00927674 0 9.0375e-05)
(0.00924679 0 7.98807e-05)
(0.00922035 0 7.03446e-05)
(0.00919708 0 6.16723e-05)
(0.00917671 0 5.37739e-05)
(0.00915898 0 4.65646e-05)
(0.00914366 0 3.99644e-05)
(0.00913056 0 3.38983e-05)
(0.00911949 0 2.82957e-05)
(0.00911031 0 2.309e-05)
(0.00910289 0 1.82186e-05)
(0.00909711 0 1.36223e-05)
(0.0090929 0 9.24462e-06)
(0.00909018 0 5.03175e-06)
(0.00908891 0 9.31876e-07)
(0.00908904 0 -3.10514e-06)
(0.00909057 0 -7.12824e-06)
(0.00909349 0 -1.11856e-05)
(0.00909783 0 -1.53262e-05)
(0.00910361 0 -1.96006e-05)
(0.0091109 0 -2.40614e-05)
(0.00911975 0 -2.87637e-05)
(0.00913027 0 -3.3766e-05)
(0.00914256 0 -3.91306e-05)
(0.00915675 0 -4.49248e-05)
(0.009173 0 -5.12221e-05)
(0.00919149 0 -5.81028e-05)
(0.00921243 0 -6.5656e-05)
(0.00923606 0 -7.39807e-05)
(0.00926267 0 -8.31877e-05)
(0.00929255 0 -9.34017e-05)
(0.00932607 0 -0.000104764)
(0.00936364 0 -0.000117435)
(0.00940571 0 -0.000131598)
(0.00945283 0 -0.000147463)
(0.00950558 0 -0.000165273)
(0.00956464 0 -0.000185309)
(0.0096308 0 -0.000207898)
(0.00970495 0 -0.00023342)
(0.0097881 0 -0.000262324)
(0.00988143 0 -0.00029514)
(0.00998628 0 -0.000332494)
(0.0101042 0 -0.000375135)
(0.010237 0 -0.000423961)
(0.0103868 0 -0.000480058)
(0.010556 0 -0.000544744)
(0.0107476 0 -0.000619636)
(0.0109648 0 -0.000706726)
(0.0112117 0 -0.000808502)
(0.0114932 0 -0.000928088)
(0.011815 0 -0.00106947)
(0.0121842 0 -0.00123778)
(0.0126094 0 -0.00143979)
(0.0131015 0 -0.00168457)
(0.0136742 0 -0.00198463)
(0.014345 0 -0.00235784)
(0.0151372 0 -0.00283072)
(0.0160807 0 -0.0034444)
(0.0172148 0 -0.00426532)
(0.0185862 0 -0.00540446)
(0.02024 0 -0.0070489)
(0.0221918 0 -0.00950896)
(0.0243464 0 -0.0132861)
(0.0262299 0 -0.0191326)
(0.0263239 0 -0.02777)
(0.0220099 0 -0.0380896)
(0.012842 0 -0.0449897)
(0.00128331 0 -0.0458017)
(-0.00867567 0 -0.0395869)
(-0.0132675 0 -0.0290745)
(-0.0131598 0 -0.0200342)
(-0.0111134 0 -0.0138186)
(-0.00875784 0 -0.00976414)
(-0.00661808 0 -0.00711591)
(-0.00480972 0 -0.00534666)
(-0.00332187 0 -0.00411481)
(-0.00209841 0 -0.00320693)
(-0.00108217 0 -0.00249394)
(-0.000503876 0 -0.00190106)
(0.000113154 0 -0.000570939)
(0.000244083 0 -0.000746843)
(0.000479877 0 -0.000951809)
(0.000768423 0 -0.00118535)
(0.00112151 0 -0.0014451)
(0.00155048 0 -0.00172625)
(0.00206263 0 -0.00202128)
(0.00266204 0 -0.00231996)
(0.00334919 0 -0.00260971)
(0.00412019 0 -0.00287644)
(0.00496642 0 -0.00310564)
(0.00587458 0 -0.00328377)
(0.00682734 0 -0.00339967)
(0.0078044 0 -0.00344566)
(0.00878385 0 -0.00341826)
(0.00974365 0 -0.00331842)
(0.0106631 0 -0.00315117)
(0.0115238 0 -0.00292492)
(0.0123108 0 -0.0026505)
(0.0130126 0 -0.00234013)
(0.0136217 0 -0.00200644)
(0.014134 0 -0.00166168)
(0.0145489 0 -0.00131701)
(0.0148685 0 -0.000982098)
(0.0150973 0 -0.000664876)
(0.0152414 0 -0.000371406)
(0.0153085 0 -0.000105901)
(0.0153068 0 0.000129186)
(0.015245 0 0.000332761)
(0.0151318 0 0.000504771)
(0.0149759 0 0.000646041)
(0.0147856 0 0.000758105)
(0.0145685 0 0.000843039)
(0.0143317 0 0.000903294)
(0.0140816 0 0.000941555)
(0.0138236 0 0.000960607)
(0.0135628 0 0.000963231)
(0.013303 0 0.000952118)
(0.0130477 0 0.000929805)
(0.0127997 0 0.000898627)
(0.0125609 0 0.000860687)
(0.0123331 0 0.000817847)
(0.0121172 0 0.000771719)
(0.0119141 0 0.000723673)
(0.0117241 0 0.000674853)
(0.0115472 0 0.000626189)
(0.0113834 0 0.000578425)
(0.0112323 0 0.000532133)
(0.0110936 0 0.00048774)
(0.0109665 0 0.000445547)
(0.0108506 0 0.000405752)
(0.0107451 0 0.000368465)
(0.0106494 0 0.000333727)
(0.0105627 0 0.000301523)
(0.0104845 0 0.000271796)
(0.0104141 0 0.000244457)
(0.0103507 0 0.000219393)
(0.0102939 0 0.000196476)
(0.010243 0 0.000175568)
(0.0101976 0 0.000156525)
(0.0101571 0 0.000139204)
(0.0101211 0 0.000123462)
(0.0100892 0 0.00010916)
(0.0100611 0 9.61619e-05)
(0.0100362 0 8.4341e-05)
(0.0100145 0 7.35747e-05)
(0.00999556 0 6.37479e-05)
(0.00997918 0 5.47521e-05)
(0.00996515 0 4.6485e-05)
(0.00995327 0 3.88508e-05)
(0.00994339 0 3.17593e-05)
(0.00993537 0 2.51252e-05)
(0.0099291 0 1.88681e-05)
(0.00992447 0 1.29114e-05)
(0.00992142 0 7.18207e-06)
(0.00991988 0 1.60972e-06)
(0.00991983 0 -3.87379e-06)
(0.00992125 0 -9.335e-06)
(0.00992412 0 -1.48396e-05)
(0.00992848 0 -2.04536e-05)
(0.00993435 0 -2.62453e-05)
(0.00994179 0 -3.22858e-05)
(0.00995087 0 -3.86494e-05)
(0.00996168 0 -4.54148e-05)
(0.00997433 0 -5.26658e-05)
(0.00998895 0 -6.0493e-05)
(0.0100057 0 -6.89949e-05)
(0.0100248 0 -7.82795e-05)
(0.0100464 0 -8.84657e-05)
(0.0100708 0 -9.96861e-05)
(0.0100983 0 -0.000112089)
(0.0101291 0 -0.00012584)
(0.0101637 0 -0.000141127)
(0.0102024 0 -0.000158164)
(0.0102458 0 -0.000177195)
(0.0102943 0 -0.000198497)
(0.0103486 0 -0.000222391)
(0.0104093 0 -0.000249247)
(0.0104772 0 -0.000279495)
(0.0105532 0 -0.000313636)
(0.0106383 0 -0.000352257)
(0.0107336 0 -0.000396046)
(0.0108405 0 -0.000445821)
(0.0109605 0 -0.00050255)
(0.0110953 0 -0.000567396)
(0.0112469 0 -0.000641753)
(0.0114176 0 -0.000727313)
(0.0116101 0 -0.000826138)
(0.0118275 0 -0.000940764)
(0.0120734 0 -0.00107434)
(0.0123523 0 -0.00123081)
(0.0126692 0 -0.00141517)
(0.01303 0 -0.00163386)
(0.0134421 0 -0.00189529)
(0.0139142 0 -0.00221064)
(0.0144566 0 -0.00259519)
(0.0150819 0 -0.00307023)
(0.0158048 0 -0.00366633)
(0.0166416 0 -0.00442837)
(0.0176076 0 -0.00542358)
(0.0187105 0 -0.00675334)
(0.0199335 0 -0.00856852)
(0.0212019 0 -0.0110842)
(0.0223164 0 -0.0145823)
(0.0228181 0 -0.0193595)
(0.0217794 0 -0.0254685)
(0.0179691 0 -0.0319563)
(0.0112885 0 -0.0362981)
(0.00322531 0 -0.0368506)
(-0.00398857 0 -0.033078)
(-0.00802487 0 -0.0266264)
(-0.00911454 0 -0.0203044)
(-0.00852549 0 -0.015261)
(-0.00724977 0 -0.0115244)
(-0.00579543 0 -0.00881924)
(-0.00439219 0 -0.00685654)
(-0.00312998 0 -0.00540202)
(-0.00202311 0 -0.00428431)
(-0.00105961 0 -0.00338651)
(-0.000498496 0 -0.00263286)
(0.000111139 0 -0.000734286)
(0.00024016 0 -0.000953202)
(0.000473784 0 -0.00121142)
(0.000763064 0 -0.00150907)
(0.00112199 0 -0.00184323)
(0.00156407 0 -0.00220769)
(0.00209866 0 -0.00259247)
(0.00273147 0 -0.00298384)
(0.00346394 0 -0.00336484)
(0.00429231 0 -0.00371636)
(0.00520699 0 -0.00401876)
(0.00619276 0 -0.00425373)
(0.00722946 0 -0.00440628)
(0.00829343 0 -0.00446627)
(0.00935923 0 -0.00442938)
(0.0104015 0 -0.0042973)
(0.0113969 0 -0.00407716)
(0.0123249 0 -0.00378054)
(0.0131692 0 -0.00342206)
(0.013918 0 -0.00301797)
(0.0145638 0 -0.00258488)
(0.0151032 0 -0.00213867)
(0.0155364 0 -0.00169368)
(0.0158668 0 -0.00126224)
(0.0160998 0 -0.000854308)
(0.016243 0 -0.000477464)
(0.0163047 0 -0.000136918)
(0.0162944 0 0.000164314)
(0.0162214 0 0.000424931)
(0.0160953 0 0.00064496)
(0.0159253 0 0.000825539)
(0.0157201 0 0.000968699)
(0.015488 0 0.00107714)
(0.0152363 0 0.00115405)
(0.0149715 0 0.00120287)
(0.0146994 0 0.00122717)
(0.014425 0 0.00123051)
(0.0141525 0 0.00121634)
(0.0138852 0 0.00118788)
(0.0136258 0 0.00114812)
(0.0133766 0 0.00109973)
(0.013139 0 0.00104508)
(0.0129142 0 0.000986233)
(0.0127027 0 0.00092493)
(0.0125051 0 0.000862629)
(0.0123213 0 0.000800518)
(0.0121511 0 0.000739544)
(0.0119942 0 0.00068044)
(0.0118502 0 0.00062375)
(0.0117183 0 0.000569862)
(0.011598 0 0.000519028)
(0.0114886 0 0.000471392)
(0.0113893 0 0.000427005)
(0.0112995 0 0.000385852)
(0.0112184 0 0.00034786)
(0.0111453 0 0.000312915)
(0.0110796 0 0.000280875)
(0.0110207 0 0.000251577)
(0.0109679 0 0.000224845)
(0.0109208 0 0.000200498)
(0.0108788 0 0.00017835)
(0.0108414 0 0.00015822)
(0.0108083 0 0.00013993)
(0.010779 0 0.000123309)
(0.0107532 0 0.000108193)
(0.0107306 0 9.44268e-05)
(0.0107109 0 8.18624e-05)
(0.0106938 0 7.03619e-05)
(0.0106792 0 5.97948e-05)
(0.0106668 0 5.0039e-05)
(0.0106564 0 4.09793e-05)
(0.010648 0 3.25073e-05)
(0.0106413 0 2.45203e-05)
(0.0106364 0 1.69209e-05)
(0.010633 0 9.61602e-06)
(0.0106312 0 2.51607e-06)
(0.010631 0 -4.46574e-06)
(0.0106322 0 -1.14142e-05)
(0.0106349 0 -1.8413e-05)
(0.0106392 0 -2.55461e-05)
(0.010645 0 -3.28998e-05)
(0.0106523 0 -4.0564e-05)
(0.0106613 0 -4.86324e-05)
(0.0106721 0 -5.72042e-05)
(0.0106848 0 -6.63851e-05)
(0.0106994 0 -7.62891e-05)
(0.0107162 0 -8.70398e-05)
(0.0107353 0 -9.87725e-05)
(0.010757 0 -0.000111636)
(0.0107814 0 -0.000125797)
(0.0108089 0 -0.000141439)
(0.0108398 0 -0.00015877)
(0.0108744 0 -0.000178023)
(0.0109132 0 -0.000199464)
(0.0109565 0 -0.000223393)
(0.0110049 0 -0.000250154)
(0.0110591 0 -0.000280142)
(0.0111195 0 -0.000313813)
(0.0111871 0 -0.000351693)
(0.0112625 0 -0.000394392)
(0.0113469 0 -0.000442626)
(0.0114412 0 -0.00049723)
(0.0115467 0 -0.00055919)
(0.0116647 0 -0.000629673)
(0.0117969 0 -0.000710068)
(0.011945 0 -0.000802037)
(0.0121112 0 -0.000907584)
(0.0122977 0 -0.00102914)
(0.0125073 0 -0.00116967)
(0.012743 0 -0.00133283)
(0.0130084 0 -0.00152318)
(0.0133075 0 -0.00174642)
(0.0136449 0 -0.00200985)
(0.0140259 0 -0.00232284)
(0.0144563 0 -0.00269766)
(0.0149424 0 -0.00315065)
(0.0154909 0 -0.00370388)
(0.0161074 0 -0.00438763)
(0.0167948 0 -0.00524382)
(0.0175489 0 -0.00633062)
(0.0183504 0 -0.00772766)
(0.0191491 0 -0.00953979)
(0.0198386 0 -0.0118941)
(0.0202175 0 -0.014919)
(0.0199347 0 -0.0186814)
(0.0184497 0 -0.0230255)
(0.015202 0 -0.0272598)
(0.0102455 0 -0.0300444)
(0.0044809 0 -0.0304183)
(-0.000774632 0 -0.0281289)
(-0.00422123 0 -0.0240321)
(-0.00577129 0 -0.0196156)
(-0.00601276 0 -0.0156924)
(-0.00551347 0 -0.0124895)
(-0.00466004 0 -0.0099696)
(-0.00368337 0 -0.00800837)
(-0.00270896 0 -0.00646896)
(-0.00179098 0 -0.00523163)
(-0.000951078 0 -0.0042037)
(-0.000451422 0 -0.00331668)
(0.000102063 0 -0.0008903)
(0.000221848 0 -0.0011518)
(0.00044153 0 -0.00146493)
(0.000719984 0 -0.00183074)
(0.00107386 0 -0.00224585)
(0.00151929 0 -0.00270254)
(0.00206815 0 -0.00318809)
(0.00272829 0 -0.00368465)
(0.00350246 0 -0.00417002)
(0.00438707 0 -0.00461902)
(0.00537141 0 -0.0050057)
(0.00643776 0 -0.00530592)
(0.00756237 0 -0.00550007)
(0.0087173 0 -0.00557516)
(0.0098727 0 -0.00552608)
(0.0109992 0 -0.00535573)
(0.0120701 0 -0.00507411)
(0.0130627 0 -0.00469683)
(0.0139596 0 -0.00424317)
(0.0147485 0 -0.00373419)
(0.0154225 0 -0.00319108)
(0.0159794 0 -0.00263379)
(0.0164207 0 -0.00208011)
(0.0167514 0 -0.0015451)
(0.0169786 0 -0.00104077)
(0.0171111 0 -0.000576111)
(0.017159 0 -0.000157171)
(0.0171324 0 0.000212617)
(0.0170418 0 0.000531868)
(0.0168976 0 0.000800819)
(0.0167096 0 0.00102105)
(0.016487 0 0.00119521)
(0.0162382 0 0.00132674)
(0.015971 0 0.00141964)
(0.0156919 0 0.0014782)
(0.0154068 0 0.00150685)
(0.0151207 0 0.00150997)
(0.0148377 0 0.00149179)
(0.014561 0 0.00145626)
(0.0142934 0 0.00140702)
(0.0140368 0 0.00134733)
(0.0137928 0 0.00128009)
(0.0135623 0 0.0012078)
(0.0133459 0 0.00113257)
(0.0131439 0 0.00105617)
(0.0129562 0 0.00098005)
(0.0127827 0 0.000905355)
(0.0126228 0 0.000832974)
(0.0124761 0 0.000763567)
(0.012342 0 0.000697602)
(0.0122196 0 0.000635384)
(0.0121084 0 0.000577086)
(0.0120075 0 0.00052277)
(0.0119163 0 0.000472413)
(0.0118339 0 0.000425927)
(0.0117597 0 0.000383171)
(0.011693 0 0.00034397)
(0.0116332 0 0.000308125)
(0.0115797 0 0.000275421)
(0.0115318 0 0.000245634)
(0.0114892 0 0.00021854)
(0.0114512 0 0.000193915)
(0.0114176 0 0.000171542)
(0.0113879 0 0.000151212)
(0.0113616 0 0.000132724)
(0.0113386 0 0.000115888)
(0.0113186 0 0.000100525)
(0.0113012 0 8.64649e-05)
(0.0112862 0 7.35491e-05)
(0.0112735 0 6.16283e-05)
(0.0112629 0 5.05619e-05)
(0.0112542 0 4.02179e-05)
(0.0112473 0 3.04711e-05)
(0.0112421 0 2.12029e-05)
(0.0112385 0 1.22998e-05)
(0.0112365 0 3.65288e-06)
(0.011236 0 -4.84352e-06)
(0.0112371 0 -1.32927e-05)
(0.0112395 0 -2.17964e-05)
(0.0112435 0 -3.04569e-05)
(0.0112491 0 -3.93783e-05)
(0.0112562 0 -4.86691e-05)
(0.0112649 0 -5.84425e-05)
(0.0112754 0 -6.88178e-05)
(0.0112877 0 -7.99222e-05)
(0.0113019 0 -9.18924e-05)
(0.0113183 0 -0.000104877)
(0.0113369 0 -0.000119036)
(0.0113581 0 -0.000134551)
(0.0113819 0 -0.000151616)
(0.0114088 0 -0.000170452)
(0.0114389 0 -0.000191306)
(0.0114726 0 -0.000214454)
(0.0115104 0 -0.000240209)
(0.0115525 0 -0.000268925)
(0.0115996 0 -0.000301008)
(0.0116521 0 -0.00033692)
(0.0117107 0 -0.000377193)
(0.011776 0 -0.00042244)
(0.0118489 0 -0.00047337)
(0.0119301 0 -0.000530807)
(0.0120207 0 -0.000595713)
(0.0121217 0 -0.000669218)
(0.0122344 0 -0.000752648)
(0.0123601 0 -0.000847577)
(0.0125004 0 -0.000955876)
(0.012657 0 -0.00107978)
(0.0128319 0 -0.00122199)
(0.013027 0 -0.00138577)
(0.013245 0 -0.0015751)
(0.0134882 0 -0.00179489)
(0.0137597 0 -0.00205121)
(0.0140623 0 -0.0023517)
(0.0143992 0 -0.002706)
(0.0147732 0 -0.00312642)
(0.0151866 0 -0.00362887)
(0.0156405 0 -0.00423404)
(0.0161329 0 -0.00496893)
(0.0166568 0 -0.00586868)
(0.0171952 0 -0.00697841)
(0.0177146 0 -0.00835397)
(0.0181536 0 -0.0100597)
(0.0184072 0 -0.012159)
(0.0183094 0 -0.0146905)
(0.0176183 0 -0.0176199)
(0.0160308 0 -0.0207515)
(0.0133043 0 -0.0236078)
(0.00954237 0 -0.0254478)
(0.00530051 0 -0.02572)
(0.0013786 0 -0.0243056)
(-0.00151353 0 -0.0216336)
(-0.00315982 0 -0.0185275)
(-0.00383202 0 -0.0155263)
(-0.00384175 0 -0.0128794)
(-0.0034522 0 -0.0106496)
(-0.00285305 0 -0.00880658)
(-0.0021679 0 -0.00728246)
(-0.00146614 0 -0.00600139)
(-0.000788643 0 -0.00489539)
(-0.000377265 0 -0.00390583)
(8.59067e-05 0 -0.00102915)
(0.000189004 0 -0.00133146)
(0.000382763 0 -0.00170073)
(0.000638729 0 -0.00213901)
(0.000976797 0 -0.00264251)
(0.00141618 0 -0.00320188)
(0.00197197 0 -0.00380125)
(0.00265467 0 -0.004418)
(0.00346876 0 -0.0050236)
(0.0044109 0 -0.00558542)
(0.00546896 0 -0.00606968)
(0.00662205 0 -0.00644504)
(0.0078418 0 -0.00668624)
(0.00909482 0 -0.00677702)
(0.0103457 0 -0.00671166)
(0.0115603 0 -0.00649495)
(0.0127078 0 -0.00614082)
(0.0137634 0 -0.00567008)
(0.0147082 0 -0.00510779)
(0.0155304 0 -0.00448079)
(0.0162239 0 -0.00381556)
(0.0167881 0 -0.00313662)
(0.0172266 0 -0.00246543)
(0.0175464 0 -0.00181986)
(0.0177568 0 -0.00121389)
(0.0178685 0 -0.000657731)
(0.017893 0 -0.000158042)
(0.0178418 0 0.000281551)
(0.0177266 0 0.00065977)
(0.0175584 0 0.00097725)
(0.0173478 0 0.0012362)
(0.0171044 0 0.00144004)
(0.016837 0 0.00159312)
(0.0165532 0 0.00170035)
(0.0162598 0 0.00176696)
(0.0159625 0 0.00179831)
(0.0156661 0 0.00179966)
(0.0153745 0 0.00177603)
(0.0150909 0 0.00173214)
(0.0148177 0 0.00167227)
(0.0145567 0 0.00160029)
(0.0143093 0 0.0015196)
(0.0140762 0 0.00143311)
(0.013858 0 0.00134332)
(0.0136546 0 0.0012523)
(0.013466 0 0.00116173)
(0.0132919 0 0.00107295)
(0.0131318 0 0.000986986)
(0.012985 0 0.000904609)
(0.0128509 0 0.000826361)
(0.0127287 0 0.00075259)
(0.0126177 0 0.000683491)
(0.0125171 0 0.000619131)
(0.0124261 0 0.000559479)
(0.0123441 0 0.000504422)
(0.0122702 0 0.000453794)
(0.0122038 0 0.000407383)
(0.0121443 0 0.000364951)
(0.012091 0 0.000326242)
(0.0120434 0 0.00029099)
(0.0120009 0 0.000258928)
(0.0119632 0 0.000229792)
(0.0119297 0 0.000203324)
(0.0119001 0 0.000179276)
(0.011874 0 0.00015741)
(0.011851 0 0.000137501)
(0.011831 0 0.000119337)
(0.0118137 0 0.000102718)
(0.0117987 0 8.7455e-05)
(0.011786 0 7.33729e-05)
(0.0117753 0 6.03056e-05)
(0.0117665 0 4.8097e-05)
(0.0117595 0 3.65997e-05)
(0.0117542 0 2.5674e-05)
(0.0117505 0 1.51864e-05)
(0.0117483 0 5.00849e-06)
(0.0117476 0 -4.98386e-06)
(0.0117483 0 -1.49121e-05)
(0.0117505 0 -2.48962e-05)
(0.0117542 0 -3.50558e-05)
(0.0117593 0 -4.55131e-05)
(0.011766 0 -5.63943e-05)
(0.0117742 0 -6.78313e-05)
(0.0117841 0 -7.99628e-05)
(0.0117958 0 -9.29365e-05)
(0.0118093 0 -0.000106911)
(0.0118249 0 -0.000122057)
(0.0118427 0 -0.000138561)
(0.0118628 0 -0.00015663)
(0.0118855 0 -0.00017649)
(0.011911 0 -0.000198393)
(0.0119397 0 -0.00022262)
(0.0119718 0 -0.000249488)
(0.0120076 0 -0.000279352)
(0.0120476 0 -0.000312617)
(0.0120922 0 -0.000349739)
(0.0121418 0 -0.000391241)
(0.0121971 0 -0.00043772)
(0.0122586 0 -0.000489862)
(0.0123271 0 -0.000548457)
(0.0124032 0 -0.000614421)
(0.0124878 0 -0.000688815)
(0.0125819 0 -0.000772877)
(0.0126864 0 -0.000868058)
(0.0128025 0 -0.000976061)
(0.0129313 0 -0.0010989)
(0.0130744 0 -0.00123896)
(0.013233 0 -0.0013991)
(0.0134087 0 -0.00158272)
(0.0136032 0 -0.00179396)
(0.0138181 0 -0.00203781)
(0.014055 0 -0.00232039)
(0.0143152 0 -0.00264921)
(0.0145999 0 -0.00303355)
(0.0149092 0 -0.00348496)
(0.015242 0 -0.00401783)
(0.0155949 0 -0.0046501)
(0.0159608 0 -0.00540397)
(0.0163261 0 -0.00630652)
(0.0166678 0 -0.00738963)
(0.0169478 0 -0.0086885)
(0.0171063 0 -0.0102371)
(0.0170541 0 -0.0120578)