/*--------------------------------*- C++ -*----------------------------------*\
  =========                 |
  \\      /  F ield         | OpenFOAM: The Open Source CFD Toolbox
   \\    /   O peration     | Website:  https://openfoam.org
    \\  /    A nd           | Version:  13
     \\/     M anipulation  |
\*---------------------------------------------------------------------------*/
FoamFile
{
    format      ascii;
    class       volScalarField;
    location    "459.831886";
    object      T;
}
// * * * * * * * * * * * * * * * * * * * * * * * * * * * * * * * * * * * * * //

dimensions      [0 0 0 1 0 0 0];

internalField   nonuniform List<scalar> 
5712
(
428.552
428.835
429.3
429.734
430.399
430.845
431.897
432.264
431.561
431.988
430.383
430.811
429.514
429.914
428.853
429.156
430.773
431.35
431.532
432.33
432.599
433.334
433.306
434.244
427.616
426.064
427.915
426.461
428.327
426.839
428.796
427.385
429.955
429.09
430.754
429.659
427.794
428.706
432.471
433.866
433.255
434.299
434.144
435.333
435.07
435.975
430.895
432.339
431.731
432.83
429.626
431.025
424.283
423.208
425.023
423.901
425.064
423.713
425.942
424.694
426.203
424.38
427.574
425.869
428.652
426.961
429.898
428.174
431.234
431.496
432.441
432.58
433.657
433.978
434.635
434.956
430.321
430.044
428.92
428.9
433.47
433.482
434.406
434.236
435.52
435.781
436.354
436.487
431.477
430.996
432.512
431.772
428.235
426.189
427.524
425.249
426.739
424.658
426.339
423.985
429.481
427.481
428.504
426.265
430.595
428.616
429.284
427.074
421.746
419.421
421.361
419.065
422.465
420.288
421.761
419.564
423.675
421.988
422.442
420.628
429.544
432.387
426.958
425.014
422.903
431.945
428.94
425.85
423.779
421.517
432.75
430.073
427.483
425.035
422.633
417.275
416.175
416.159
415.186
418.355
417.093
416.892
415.842
420.247
418.827
418.159
416.911
431.221
430.028
427.944
426.355
424.917
423.282
422.517
420.911
419.376
417.792
432.207
431.233
429.21
427.568
426.408
424.555
423.628
421.647
420.143
418.085
430.696
428.873
432.022
430.401
433.644
433.04
434.842
434.46
429.037
426.93
427.746
425.504
433.149
431.526
433.89
432.341
435.81
435.444
436.514
436.222
430.209
428.065
430.954
428.861
425.651
423.144
421.486
418.491
424.603
421.963
420.77
417.821
426.611
424.185
422.165
419.222
427.515
425.064
423.102
420.314
415.745
415.189
414.265
415.558
415.261
414.409
416.439
415.769
414.787
416.086
415.738
414.819
417.866
417.006
415.908
416.891
416.406
415.373
428.563
426.906
425.16
424.642
423.182
421.64
421.696
420.422
419.059
419.597
418.506
417.205
417.539
416.892
415.68
429.861
427.991
426.006
425.361
423.418
421.469
422.314
420.579
418.829
419.864
418.513
416.958
417.595
416.771
415.371
435.839
436.439
436.382
437.158
434.378
435.113
434.995
435.911
436.04
437.199
436.192
437.267
436.412
437.442
436.677
437.639
437.544
437.022
437.887
437.268
437.696
438.128
437.774
438.491
436.65
437.441
437.907
438.601
438.394
439.047
438.393
439.07
438.373
439.409
438.179
439.137
438.551
439.61
438.514
439.478
438.731
439.878
439.042
440.07
439.278
440.164
439.855
440.564
437.202
437.714
437.917
438.482
435.668
436.109
436.492
436.967
438.904
439.578
438.273
438.899
438.607
439.146
439.292
439.73
437.268
437.705
438.018
438.352
439.516
440.167
440.146
440.688
439.727
440.599
440.285
440.778
439.214
440.167
439.69
440.28
440.23
440.984
440.805
441.209
440.782
441.396
441.263
441.583
438.273
437.706
439.275
438.698
438.307
437.709
439.36
438.761
438.363
437.825
439.497
438.96
436.642
434.813
437.786
438.699
439.663
434.403
436.209
437.261
438.158
439.191
435.185
436.97
438.251
439.11
439.788
436.761
435.476
437.745
436.497
436.85
435.62
437.904
436.705
437.07
435.902
438.21
437.09
433.858
432.852
435.775
434.746
436.861
435.808
437.704
436.634
438.682
437.621
434.834
434.216
436.664
436.038
437.908
437.176
438.702
437.819
439.295
438.221
437.783
437.508
438.567
438.493
436.121
435.897
437.052
437.084
439.532
439.205
438.853
438.358
439.175
439.256
439.753
439.891
437.78
437.959
438.425
438.674
440.081
439.891
440.601
440.461
440.107
439.51
440.335
439.448
439.491
438.744
439.854
438.855
440.615
440.147
440.752
439.972
441.048
440.63
441.132
440.448
433.739
432.02
430.406
434.362
432.418
430.795
433.986
432.243
430.59
434.654
432.695
431
434.362
432.647
430.965
435.129
433.073
431.262
431.505
429.847
428.073
433.367
431.647
429.828
434.406
432.608
430.753
435.148
433.349
431.546
435.645
433.478
431.501
433.117
431.304
429.283
434.888
433.035
430.995
435.87
433.907
431.803
436.293
434.229
432.105
436.148
433.87
431.695
439.793
438.988
436.996
433.409
439.466
438.606
436.55
432.937
439.939
439.102
437.101
433.478
439.732
438.817
436.739
433.11
440.132
439.248
437.326
433.806
440.22
439.234
437.184
433.588
440.167
439.074
436.881
433.201
440.387
439.17
436.887
433.18
440.587
439.537
437.528
433.96
440.522
439.401
437.555
434.34
440.264
439.318
437.501
434.19
440.164
439.15
437.436
434.408
440.85
439.698
437.531
433.83
440.834
439.618
437.664
434.369
441.12
439.867
437.623
433.937
441.108
439.809
437.794
434.51
439.729
439.008
437.192
433.813
439.258
438.644
437.089
434.133
439.771
439.027
437.235
433.876
439.28
438.638
437.091
434.162
439.832
439.043
437.305
434.042
439.382
438.674
437.123
434.228
439.851
439.002
437.347
434.272
439.478
438.7
437.166
434.349
439.808
438.894
437.311
434.489
438.538
438.016
436.613
434.488
437.733
437.269
435.836
433.838
438.63
438.066
436.651
434.529
437.828
437.316
435.864
433.858
438.796
438.153
436.704
434.566
437.994
437.395
435.906
433.894
439.036
438.285
436.802
434.653
438.219
437.511
435.975
433.946
439.346
438.459
436.921
434.747
438.482
437.644
436.049
433.996
439.938
438.796
437.087
434.827
439.155
438.034
436.295
434.164
439.647
438.626
437
434.781
438.82
437.837
436.171
434.082
440.2
438.955
437.168
434.867
439.465
438.221
436.409
434.254
440.453
439.12
437.279
434.957
439.752
438.402
436.529
434.349
428.02
423.704
420.05
417.097
414.842
427.748
423.483
419.843
416.896
414.644
428.053
423.72
420.06
417.105
414.849
427.798
423.516
419.867
416.916
414.663
428.115
423.748
420.078
417.119
414.861
427.997
423.684
420.022
417.063
414.805
427.891
423.574
419.908
416.948
414.69
427.96
423.623
419.944
416.976
414.715
428.157
423.772
420.093
417.129
414.869
427.934
423.455
419.768
416.808
414.553
428.105
423.693
420.015
417.055
414.797
427.863
423.381
419.699
416.742
414.49
428.163
423.773
420.089
417.121
414.859
427.912
423.423
419.73
416.767
414.512
428.234
423.821
420.123
417.148
414.883
427.931
423.421
419.718
416.75
414.492
427.989
423.602
419.94
416.989
414.736
427.665
423.22
419.561
416.618
414.371
427.997
423.596
419.93
416.977
414.723
427.673
423.22
419.558
416.613
414.367
427.992
423.564
419.891
416.936
414.682
427.671
423.204
419.536
416.59
414.343
427.897
423.428
419.749
416.794
414.542
427.618
423.138
419.467
416.52
414.273
427.705
423.223
419.546
416.595
414.345
411.431
410.776
411.74
411.071
412.307
411.562
413.034
412.156
413.772
412.747
414.963
413.789
414.362
413.208
415.547
414.422
416.148
415.127
404.494
396.981
390.729
385.909
382.646
404.596
397.034
390.714
385.866
382.55
404.635
397.055
390.775
385.942
382.674
404.725
397.09
390.759
385.88
382.571
404.919
397.212
390.876
386.016
382.736
404.998
397.241
390.856
385.95
382.63
405.304
397.439
391.025
386.126
382.828
405.351
397.448
390.992
386.049
382.712
405.756
397.727
391.221
386.271
382.95
405.734
397.692
391.158
386.174
382.818
406.734
398.431
391.738
386.673
383.301
406.627
398.33
391.624
386.541
383.145
406.245
398.07
391.468
386.459
383.111
406.157
397.984
391.365
386.333
382.958
407.219
398.8
392.02
386.9
383.501
407.149
398.726
391.93
386.787
383.364
407.712
399.181
392.314
387.136
383.709
407.712
399.147
392.262
387.055
383.593
437.688
436.655
435.668
436.849
435.092
435.271
435.343
435.587
435.021
435.351
433.628
434.008
432.856
433.285
433.897
434.259
434.29
434.544
434.347
434.544
436.708
436.88
433.168
431.765
431.38
431.217
432.489
433.607
432.065
433.728
430.694
428.701
433.229
432.753
431.186
432.759
432.113
431.929
434.847
434.792
433.829
434.087
434.544
434.824
434.376
433.877
432.138
432.423
433.153
433.444
436.145
436.429
435.75
435.957
435.398
435.377
434.273
433.05
434.328
438.657
439.633
440.024
439.924
439.322
438.346
439.169
439.507
439.321
438.551
434.173
434.635
434.671
434.255
433.369
432.73
433.152
433.152
432.711
431.819
432.356
432.794
432.811
432.387
431.505
432.178
432.598
432.597
432.158
431.27
433.481
433.931
433.957
433.535
432.65
435.727
436.99
437.637
437.733
437.296
434.315
435.677
436.363
436.463
435.962
435.254
436.215
436.704
436.634
435.931
432.773
434.078
434.708
434.747
434.138
430.717
432.048
432.683
432.727
432.121
434.45
435.146
435.406
435.161
434.364
434.161
435.032
435.444
435.312
434.576
432.545
433.379
433.764
433.614
432.875
433.899
434.515
434.703
434.405
433.583
433.317
434.001
434.252
434.004
433.209
433.045
433.639
433.809
433.501
432.678
436.797
437.873
438.399
438.408
437.888
436.151
436.964
437.326
437.16
436.404
434.993
435.631
435.835
435.549
434.727
435.203
435.786
435.939
435.612
434.769
435.745
436.414
436.646
436.379
435.567
435.964
436.567
436.738
436.423
435.583
435.441
435.964
436.058
435.684
434.814
434.933
435.451
435.541
435.166
434.298
433.177
433.684
433.77
433.397
432.538
433.436
433.912
433.964
433.564
432.69
434.245
434.808
434.944
434.607
433.762
434.505
435.032
435.132
434.766
433.905
438.037
439.041
439.472
439.404
438.839
437.808
438.59
438.903
438.698
437.917
437.334
438.232
438.651
438.554
437.908
437.194
437.881
438.123
437.861
437.047
436.571
437.205
437.401
437.105
436.273
436.71
437.492
437.828
437.645
436.878
435.347
435.881
435.986
435.622
434.758
434.07
434.55
434.605
434.204
433.327
435.431
435.998
436.134
435.794
434.942
437.306
436.673
437.256
436.554
438.698
437.964
438.728
438.078
437.2
437.12
436.526
436.666
438.675
438.63
438
438.196
435.824
434.365
435.254
433.853
435.816
434.497
435.147
433.854
435.124
435.718
435.446
435.843
434.697
434.097
435.703
434.999
436.023
435.253
437.125
436.385
437.56
436.84
434.331
433.578
434.776
433.916
433.275
432.376
433.018
431.835
432.569
431.442
433.12
431.718
432.542
431.299
433.369
431.481
432.965
431.281
432.204
430.483
431.176
429.428
436.657
436.271
436.337
435.901
438.485
438.346
438.146
438.022
434.593
433.527
434.887
433.913
435.827
435.451
435.175
434.894
437.651
437.606
437.048
437.099
434.074
433.061
433.367
432.46
432.77
430.69
431.063
428.74
432.98
430.745
431.397
428.951
432.265
430.273
430.609
428.352
431.517
429.554
429.986
427.771
432.964
432.326
431.654
430.641
433.076
432.552
431.471
430.497
433.278
433
431.139
430.335
436.742
438.627
434.894
432.901
430.353
438.69
436.901
435.058
432.963
429.939
438.517
436.488
434.152
431.598
428.957
431.255
430.74
427.917
426.914
431.759
431.243
428.11
427.108
432.507
432.078
428.342
427.333
438.644
438.348
436.737
436.391
434.742
434.394
432.331
431.892
428.02
426.945
438.498
438.18
436.268
435.572
433.732
432.862
430.799
429.77
426.859
425.568
435.716
434.526
435.377
434.157
438.253
438.084
437.955
437.846
432.522
430.811
432.928
431.304
435.077
433.681
434.524
433.032
437.604
437.413
437.105
436.859
432.218
430.3
431.613
429.578
429.115
426.937
424.806
422.084
429.713
427.596
425.611
423.06
428.647
426.39
424.115
421.312
428.204
425.794
423.724
420.968
430.502
430.028
427.477
427.364
430.993
430.468
427.598
427.521
431.713
430.968
427.715
427.591
437.737
436.663
435.736
434.729
433.819
432.945
431.416
430.59
427.468
427.38
437.554
436.393
434.602
433.537
432.002
431.186
429.377
428.956
426.655
426.745
440.982
441.017
440.324
440.593
439.962
439.992
439.273
439.552
441.693
442.181
441.068
441.575
441.674
442.13
440.994
441.487
441.102
441.679
441.195
441.624
442.023
441.47
439.983
439.258
438.95
438.243
440.304
439.485
440.565
439.828
440.694
439.938
442.453
442.584
441.863
442.026
442.454
442.63
441.83
442.06
442.426
442.688
441.958
442.288
441.258
441.66
440.58
441.109
441.183
441.2
440.876
440.977
440.018
440.02
439.691
439.744
441.656
441.794
441.938
441.977
440.426
440.648
439.89
440.235
439.221
439.368
438.656
438.911
441.227
441.508
440.715
441.139
442.193
442.506
442.237
442.368
442.449
442.676
442.388
442.473
441.785
442.193
441.99
442.177
441.304
441.808
441.662
441.91
442.715
442.623
442.806
442.649
442.672
442.571
442.799
442.625
442.57
442.486
442.76
442.604
441.297
440.154
442.036
442.506
442.664
440.145
441.243
441.969
442.433
442.558
440.163
441.295
442.039
442.427
442.48
442.216
441.5
442.164
441.399
442.225
441.555
442.2
441.466
442.223
441.628
442.251
441.577
440.131
439.841
441.227
440.872
441.882
441.443
442.268
441.755
442.282
441.667
440.217
440.073
441.327
441.136
442.003
441.684
442.306
441.835
442.241
441.624
441.333
441.325
441.067
441.172
440.174
440.267
439.86
440.091
441.765
441.633
441.986
441.765
440.662
440.852
440.248
440.414
439.425
439.736
438.969
439.253
441.42
441.345
441.047
440.939
442.071
441.685
441.963
441.342
442.247
441.785
442.13
441.474
441.805
441.447
441.734
441.101
441.459
441.073
441.457
440.812
440.622
439.795
440.284
439.315
440.738
439.85
440.367
439.342
440.845
439.86
440.494
439.304
439.23
438.146
440.202
439.093
440.738
439.624
440.98
439.831
440.577
439.174
439.554
438.307
440.535
439.232
440.946
439.586
440.93
439.516
440.419
438.833
441.998
440.476
438.009
434.091
441.486
439.973
437.486
433.571
442.03
440.514
438.055
434.109
441.537
440.04
437.575
433.672
442.052
440.547
438.207
434.384
441.74
440.266
437.898
434.07
441.186
439.768
437.362
433.528
440.757
439.423
437.062
433.301
441.903
440.435
438.156
434.396
441.643
440.168
438.104
434.746
441.987
440.488
438.309
434.736
441.702
440.196
438.165
434.92
441.688
440.271
437.938
434.122
441.522
440.091
438.009
434.637
441.41
440.065
437.764
434.039
441.341
439.969
437.913
434.603
442.169
440.644
438.304
434.565
441.942
440.42
438.298
434.969
442.136
440.614
438.309
434.594
441.89
440.369
438.265
434.968
442.055
440.537
438.316
434.708
441.823
440.301
438.224
434.976
441.896
440.379
438.284
434.892
441.73
440.206
438.184
435.032
441.675
440.154
438.175
435.082
441.401
439.883
437.879
435.443
440.688
439.173
437.137
434.859
441.401
439.881
437.883
435.457
440.686
439.165
437.13
434.852
441.386
439.86
437.86
435.432
440.668
439.139
437.103
434.836
441.364
439.831
437.853
435.433
440.646
439.106
437.076
434.814
441.319
439.782
437.835
435.437
440.601
439.049
437.027
434.774
441.076
439.57
437.641
435.272
440.428
438.893
436.903
434.653
441.218
439.688
437.745
435.358
440.544
438.99
436.982
434.732
440.894
439.428
437.512
435.152
440.241
438.746
436.783
434.557
440.685
439.278
437.395
435.054
440.008
438.577
436.653
434.45
428.423
423.95
420.203
417.2
414.921
428.133
423.72
419.991
416.994
414.721
428.421
423.945
420.201
417.198
414.921
428.135
423.723
419.997
417.003
414.73
428.44
423.946
420.201
417.201
414.925
428.277
423.855
420.129
417.135
414.861
428.086
423.694
419.983
416.998
414.729
428.033
423.669
419.973
416.995
414.73
428.409
423.925
420.189
417.193
414.918
428.157
423.59
419.851
416.863
414.596
428.403
423.873
420.127
417.129
414.855
428.129
423.541
419.798
416.808
414.541
428.338
423.88
420.155
417.165
414.893
428.064
423.515
419.787
416.806
414.541
428.295
423.858
420.146
417.163
414.895
427.984
423.453
419.738
416.763
414.502
428.411
423.857
420.099
417.095
414.818
428.1
423.48
419.722
416.725
414.455
428.394
423.836
420.079
417.076
414.8
428.089
423.468
419.712
416.716
414.446
428.349
423.779
420.025
417.025
414.751
428.051
423.429
419.676
416.683
414.415
428.216
423.618
419.867
416.873
414.603
427.953
423.337
419.591
416.602
414.337
427.998
423.398
419.655
416.667
414.402
420.933
420.172
420.825
420.048
420.58
419.782
420.187
419.407
419.554
418.882
417.936
417.066
418.664
417.908
417.303
416.345
416.726
415.752
411.352
401.811
394.271
388.674
385.023
411.561
401.92
394.284
388.647
384.934
411.254
401.742
394.223
388.637
384.993
411.434
401.824
394.231
388.586
384.893
411.055
401.605
394.126
388.564
384.932
411.24
401.693
394.14
388.518
384.836
410.744
401.394
393.976
388.449
384.834
410.954
401.501
394.005
388.415
384.748
410.302
401.099
393.764
388.284
384.692
410.585
401.258
393.831
388.279
384.632
409.235
400.362
393.224
387.862
384.334
409.423
400.477
393.269
387.85
384.278
409.777
400.751
393.512
388.087
384.523
410.054
400.916
393.587
388.092
384.476
408.717
399.969
392.926
387.627
384.134
408.817
400.026
392.934
387.591
384.061
408.207
399.569
392.616
387.379
383.92
408.255
399.574
392.594
387.322
383.825
438.614
437.636
438.417
439.44
440.967
440.329
440.974
440.249
439.955
439.206
439.961
439.314
426.619
426.82
427.319
428.111
429.181
430.475
426.553
426.744
427.219
427.963
428.941
430.095
426.13
425.409
426.357
425.666
426.915
426.297
427.812
427.327
429.014
428.649
430.416
430.02
431.869
433.203
434.363
435.338
436.078
436.612
431.332
432.541
433.637
434.567
435.292
435.796
427.501
427.849
427.788
427.315
426.43
427.704
428.055
427.995
427.523
426.638
428.21
428.565
428.509
428.038
427.152
429.012
429.376
429.326
428.858
427.968
430.098
430.475
430.435
429.971
429.079
431.413
431.809
431.784
431.329
430.436
427.435
427.784
427.724
427.252
426.368
427.629
427.981
427.923
427.452
426.568
428.111
428.468
428.413
427.944
427.059
428.864
429.23
429.182
428.716
427.829
429.858
430.237
430.199
429.738
428.849
431.032
431.429
431.407
430.955
430.065
427.008
427.354
427.292
426.82
425.939
426.281
426.626
426.564
426.094
425.217
427.237
427.586
427.526
427.055
426.173
426.542
426.889
426.829
426.36
425.482
427.803
428.156
428.1
427.63
426.745
427.18
427.532
427.476
427.008
426.128
428.711
429.073
429.023
428.555
427.667
428.223
428.585
428.535
428.07
427.186
429.93
430.306
430.266
429.803
428.912
429.564
429.941
429.903
429.443
428.556
431.354
431.75
431.726
431.272
430.379
430.958
431.356
431.336
430.885
429.997
432.837
433.261
433.261
432.821
431.929
434.209
434.671
434.706
434.29
433.404
435.421
435.935
436.019
435.638
434.764
436.463
437.045
437.19
436.854
436
437.282
437.931
438.132
437.836
437.002
437.867
438.554
438.783
438.507
437.682
432.296
432.718
432.718
432.28
431.391
433.538
433.993
434.023
433.604
432.72
434.674
435.17
435.238
434.845
433.969
435.65
436.191
436.299
435.936
435.071
436.418
436.999
437.143
436.804
435.949
436.947
437.549
437.71
437.382
436.531
426.719
427.121
427.821
428.817
430.094
431.599
426.653
427.043
427.716
428.656
429.827
431.159
426.234
425.518
426.669
425.994
427.438
426.845
428.55
428.104
429.971
429.653
431.615
431.305
433.191
434.655
435.837
436.643
436.991
436.942
432.538
433.818
434.878
435.624
436.011
436.051
427.601
427.95
427.887
427.414
426.528
428.006
428.356
428.295
427.82
426.932
428.713
429.067
429.008
428.533
427.641
429.719
430.08
430.025
429.549
428.653
431.011
431.382
431.333
430.859
429.957
432.535
432.922
432.885
432.415
431.507
427.535
427.884
427.823
427.35
426.466
427.928
428.279
428.219
427.746
426.859
428.609
428.964
428.906
428.432
427.542
429.559
429.921
429.868
429.394
428.5
430.744
431.117
431.07
430.599
429.7
432.094
432.482
432.448
431.981
431.078
427.112
427.459
427.396
426.923
426.041
426.391
426.735
426.672
426.202
425.324
427.551
427.899
427.837
427.363
426.478
426.87
427.217
427.155
426.683
425.803
428.327
428.679
428.619
428.145
427.256
427.73
428.081
428.021
427.549
426.664
429.45
429.809
429.753
429.278
428.383
429.001
429.36
429.304
428.831
427.94
430.886
431.256
431.207
430.733
429.831
430.567
430.937
430.889
430.417
429.518
432.551
432.936
432.897
432.426
431.519
432.238
432.624
432.586
432.117
431.212
434.153
434.562
434.542
434.081
433.171
435.65
436.091
436.098
435.654
434.746
436.876
437.362
437.41
436.994
436.095
437.746
438.295
438.4
438.027
437.147
438.175
438.795
438.963
438.638
437.782
438.189
438.864
439.08
438.793
437.959
433.497
433.906
433.889
433.432
432.528
434.808
435.246
435.253
434.812
433.91
435.904
436.379
436.42
436.002
435.107
436.695
437.214
437.297
436.908
436.025
437.126
437.69
437.813
437.456
436.587
437.198
437.794
437.946
437.612
436.755
437.278
437.327
434.836
433.198
433.154
432.745
434.232
438.279
437.835
437.937
436.73
436.643
436.957
435.809
435.646
434.994
438.328
438.045
436.798
436.644
437.39
437.148
436.209
435.999
434.585
434.537
435.814
435.784
437.814
437.659
438.251
437.677
437.473
438.052
436.335
435.017
436.652
439.197
440.125
440.481
440.35
439.715
438.776
439.576
439.89
439.684
438.9
435.826
436.26
436.261
435.812
434.9
434.157
434.561
434.537
434.073
433.161
434.117
434.528
434.511
434.052
433.143
433.698
434.099
434.072
433.607
432.697
435.208
435.63
435.62
435.164
434.251
439.978
440.812
441.118
440.937
440.293
439.482
440.277
440.543
440.324
439.628
439.211
439.896
440.117
439.831
438.995
438.21
438.919
439.123
438.849
438.055
437.736
438.272
438.365
437.981
437.095
438.132
438.737
438.891
438.553
437.691
436.857
437.353
437.411
437.003
436.108
436.712
437.227
437.303
436.91
436.024
436.025
436.504
436.55
436.135
435.24
440.003
440.824
441.12
440.931
440.268
439.263
439.906
440.093
439.781
438.929
437.875
438.395
438.474
438.079
437.187
437.701
438.201
438.261
437.853
436.954
438.504
439.058
439.166
438.793
437.91
438.234
438.762
438.848
438.457
437.566
437.247
437.728
437.771
437.351
436.448
437.022
437.488
437.517
437.087
436.179
435.584
436.032
436.047
435.61
434.705
435.525
435.958
435.959
435.511
434.601
436.846
437.323
437.364
436.943
436.041
436.804
437.269
437.296
436.865
435.958
439.618
440.487
440.815
440.655
440.001
438.996
439.721
439.974
439.717
438.9
439.708
440.457
440.731
440.507
439.77
438.868
439.49
439.661
439.337
438.48
438.596
439.16
439.278
438.912
438.033
439.282
439.936
440.137
439.836
438.99
437.374
437.857
437.9
437.48
436.576
436.013
436.452
436.458
436.012
435.101
437.707
438.205
438.263
437.853
436.953
436.171
437.045
437.415
437.309
436.761
435.661
437.521
437.45
438.94
438.974
437.373
437.238
438.884
438.798
435.979
434.365
435.964
434.516
435.811
435.884
434.78
437.573
437.493
439.006
439.05
437.406
437.267
438.935
438.82
435.908
434.212
435.897
434.402
435.749
435.858
434.679
437.563
437.474
439.025
439.082
437.376
437.227
438.935
438.81
435.842
433.79
435.826
434.034
435.672
435.785
434.366
437.26
437.169
438.749
438.812
437.059
436.88
438.65
438.503
435.429
433.255
435.428
433.514
435.288
435.415
433.909
436.702
436.614
438.18
438.245
436.501
436.288
438.081
437.931
434.862
432.824
434.868
433.027
434.747
434.833
433.411
435.693
435.611
437.137
437.2
435.516
435.333
437.041
436.902
433.963
432.092
433.984
432.282
433.882
433.976
432.667
441.216
441.219
440.207
440.216
441.185
441.151
440.172
440.117
441.929
442.458
441.891
442.374
441.87
441.769
442.204
441.297
441.285
440.278
440.3
441.229
441.169
440.223
440.157
442.04
442.467
441.979
442.361
441.915
441.779
442.178
441.334
441.303
440.306
440.344
441.22
441.134
440.227
440.131
441.993
442.248
441.915
442.151
441.809
441.666
441.981
441.055
441.011
440.032
440.079
440.908
440.79
439.939
439.834
441.64
441.732
441.549
441.642
441.406
441.233
441.48
440.456
440.406
439.448
439.5
440.279
440.123
439.352
439.235
440.973
440.974
440.873
440.901
440.713
440.52
440.766
439.358
439.306
438.377
438.429
439.179
439.04
438.28
438.166
439.865
439.977
439.769
439.897
439.634
439.468
439.76
428.501
428.769
429.289
429.724
430.391
430.837
431.891
432.259
431.554
431.982
430.374
430.802
429.502
429.903
428.792
429.08
430.767
431.346
431.527
432.326
432.595
433.331
433.302
434.241
427.577
426.035
427.863
426.419
428.318
426.832
428.789
427.38
429.95
429.084
430.75
429.654
427.789
428.701
432.468
433.864
433.252
434.297
434.142
435.331
435.068
435.974
430.892
432.337
431.728
432.828
429.623
431.023
424.258
423.183
424.984
423.863
425.06
423.709
425.939
424.691
426.199
424.377
427.571
425.867
428.649
426.959
429.896
428.172
431.231
431.494
432.439
432.578
433.655
433.976
434.633
434.954
430.318
430.042
428.917
428.898
433.468
433.481
434.404
434.235
435.518
435.779
436.352
436.486
431.475
430.994
432.51
431.771
428.232
426.187
427.522
425.247
426.736
424.656
426.337
423.983
429.479
427.479
428.502
426.264
430.593
428.615
429.283
427.073
421.715
419.388
421.339
419.044
422.463
420.287
421.757
419.562
423.672
421.987
422.439
420.626
429.542
432.385
426.956
425.012
422.901
431.943
428.938
425.848
423.777
421.515
432.748
430.071
427.482
425.033
422.631
417.242
416.142
416.139
415.169
418.355
417.094
416.891
415.842
420.246
418.826
418.157
416.91
431.22
430.027
427.942
426.353
424.915
423.281
422.516
420.91
419.374
417.791
432.205
431.231
429.209
427.566
426.406
424.554
423.627
421.646
420.141
418.084
430.695
428.871
432.021
430.4
433.643
433.039
434.84
434.459
429.036
426.928
427.744
425.503
433.148
431.524
433.889
432.34
435.808
435.443
436.512
436.221
430.208
428.064
430.953
428.86
425.65
423.142
421.485
418.49
424.602
421.961
420.768
417.819
426.61
424.184
422.163
419.221
427.514
425.063
423.1
420.312
415.717
415.163
414.241
415.54
415.244
414.394
416.44
415.769
414.787
416.085
415.736
414.817
417.866
417.006
415.907
416.89
416.405
415.372
428.562
426.905
425.159
424.641
423.181
421.639
421.695
420.421
419.058
419.596
418.505
417.204
417.538
416.89
415.679
429.86
427.99
426.005
425.36
423.417
421.468
422.313
420.578
418.828
419.863
418.512
416.957
417.594
416.77
415.37
435.837
436.437
436.38
437.156
434.375
435.11
434.992
435.909
436.02
437.177
436.162
437.237
436.411
437.441
436.678
437.639
437.543
437.02
437.886
437.267
437.694
438.128
437.773
438.49
436.649
437.44
437.906
438.6
438.393
439.046
438.392
439.07
438.356
439.397
438.152
439.116
438.55
439.609
438.513
439.478
438.731
439.877
439.041
440.07
439.277
440.164
439.855
440.564
437.201
437.712
437.915
438.481
435.666
436.108
436.49
436.966
438.903
439.577
438.272
438.898
438.606
439.145
439.291
439.729
437.267
437.704
438.017
438.351
439.515
440.166
440.145
440.688
439.726
440.599
440.284
440.778
439.213
440.166
439.689
440.28
440.229
440.984
440.804
441.208
440.781
441.396
441.262
441.582
438.263
437.7
439.27
438.695
438.306
437.709
439.359
438.76
438.362
437.825
439.496
438.959
436.641
434.812
437.785
438.698
439.662
434.402
436.208
437.26
438.157
439.19
435.184
436.968
438.25
439.109
439.787
436.756
435.469
437.744
436.495
436.849
435.62
437.903
436.704
437.069
435.902
438.21
437.089
433.857
432.851
435.774
434.745
436.86
435.807
437.703
436.633
438.681
437.62
434.833
434.215
436.662
436.037
437.907
437.176
438.701
437.818
439.294
438.22
437.782
437.507
438.566
438.492
436.12
435.896
437.051
437.083
439.531
439.204
438.852
438.358
439.174
439.255
439.752
439.891
437.779
437.958
438.424
438.673
440.081
439.89
440.6
440.461
440.106
439.509
440.334
439.447
439.49
438.743
439.853
438.855
440.614
440.146
440.752
439.971
441.047
440.629
441.131
440.447
433.731
432.011
430.396
434.359
432.413
430.79
433.986
432.243
430.59
434.653
432.694
430.999
434.361
432.647
430.964
435.128
433.072
431.261
431.504
429.846
428.072
433.366
431.646
429.827
434.405
432.607
430.753
435.148
433.348
431.545
435.644
433.477
431.5
433.116
431.303
429.282
434.887
433.034
430.994
435.869
433.906
431.802
436.292
434.229
432.104
436.147
433.869
431.694
439.784
438.982
436.989
433.4
439.45
438.593
436.537
432.923
439.938
439.102
437.101
433.479
439.732
438.817
436.739
433.111
440.131
439.248
437.326
433.807
440.22
439.234
437.184
433.589
440.166
439.074
436.882
433.201
440.386
439.17
436.887
433.181
440.586
439.537
437.528
433.96
440.521
439.4
437.555
434.34
440.263
439.318
437.501
434.19
440.163
439.15
437.436
434.408
440.85
439.698
437.531
433.83
440.833
439.618
437.664
434.369
441.12
439.867
437.623
433.937
441.108
439.808
437.794
434.51
439.726
439.007
437.189
433.807
439.258
438.644
437.09
434.131
439.77
439.027
437.234
433.876
439.28
438.637
437.091
434.162
439.831
439.042
437.305
434.042
439.381
438.674
437.123
434.228
439.851
439.002
437.347
434.272
439.477
438.7
437.165
434.349
439.808
438.894
437.311
434.489
438.541
438.02
436.616
434.488
437.736
437.273
435.841
433.842
438.629
438.066
436.651
434.529
437.827
437.315
435.863
433.857
438.795
438.153
436.703
434.566
437.993
437.395
435.905
433.894
439.036
438.285
436.802
434.653
438.219
437.511
435.974
433.945
439.346
438.458
436.921
434.747
438.482
437.644
436.049
433.996
439.937
438.796
437.087
434.827
439.155
438.034
436.295
434.164
439.646
438.626
437
434.781
438.819
437.837
436.171
434.082
440.2
438.955
437.168
434.867
439.465
438.22
436.409
434.254
440.453
439.119
437.279
434.957
439.751
438.402
436.529
434.349
428.017
423.703
420.049
417.097
414.841
427.74
423.477
419.837
416.89
414.639
428.053
423.721
420.061
417.105
414.849
427.8
423.517
419.869
416.918
414.665
428.116
423.749
420.079
417.119
414.861
427.998
423.685
420.023
417.064
414.807
427.892
423.575
419.909
416.948
414.691
427.96
423.624
419.945
416.977
414.716
428.157
423.772
420.094
417.13
414.87
427.935
423.456
419.769
416.809
414.554
428.106
423.694
420.016
417.055
414.798
427.863
423.382
419.699
416.743
414.49
428.164
423.774
420.089
417.121
414.86
427.912
423.423
419.731
416.768
414.512
428.235
423.821
420.123
417.148
414.883
427.931
423.421
419.719
416.75
414.493
427.99
423.605
419.943
416.992
414.739
427.668
423.225
419.566
416.623
414.376
427.996
423.596
419.93
416.977
414.723
427.673
423.22
419.558
416.613
414.366
427.992
423.565
419.892
416.937
414.683
427.671
423.204
419.536
416.59
414.343
427.898
423.428
419.749
416.795
414.542
427.618
423.138
419.468
416.52
414.273
427.705
423.223
419.547
416.595
414.346
411.415
410.763
411.739
411.07
412.306
411.562
413.033
412.155
413.771
412.746
414.962
413.788
414.361
413.207
415.546
414.421
416.147
415.126
404.485
396.976
390.725
385.907
382.643
404.591
397.032
390.713
385.865
382.55
404.634
397.054
390.774
385.942
382.674
404.723
397.089
390.758
385.879
382.57
404.918
397.212
390.876
386.016
382.736
404.997
397.241
390.855
385.95
382.629
405.303
397.438
391.025
386.126
382.828
405.35
397.447
390.991
386.049
382.712
405.756
397.726
391.221
386.271
382.95
405.733
397.691
391.158
386.173
382.817
406.733
398.431
391.737
386.673
383.3
406.626
398.329
391.624
386.54
383.144