/*--------------------------------*- C++ -*----------------------------------*\
  =========                 |
  \\      /  F ield         | OpenFOAM: The Open Source CFD Toolbox
   \\    /   O peration     | Website:  https://openfoam.org
    \\  /    A nd           | Version:  13
     \\/     M anipulation  |
\*---------------------------------------------------------------------------*/
FoamFile
{
    format      ascii;
    class       volScalarField;
    location    "0";
    object      p;
}
// * * * * * * * * * * * * * * * * * * * * * * * * * * * * * * * * * * * * * //

dimensions      [0 2 -2 0 0 0 0];

internalField   nonuniform List<scalar> 
1120
(
0.0102531
0.0102706
0.0102884
0.0103028
0.0103068
0.0102921
0.0102537
0.010192
0.0101123
0.0100223
0.00993018
0.00984229
0.00976277
0.00969414
0.00963709
0.00959074
0.00955372
0.00952454
0.00950179
0.00948413
0.00947044
0.00945978
0.0094514
0.00944471
0.00943925
0.0094347
0.00943078
0.00942732
0.00942417
0.00942123
0.00941842
0.0094157
0.00941304
0.00941039
0.00940774
0.00940509
0.00940242
0.00939972
0.009397
0.00939424
0.00939146
0.00938863
0.00938575
0.00938283
0.00937985
0.0093768
0.00937368
0.00937048
0.00936717
0.00936374
0.00936013
0.0093563
0.00935219
0.0093477
0.00934272
0.0093371
0.00933072
0.00932359
0.00931548
0.00930498
0.00929644
0.00934237
0.00954477
0.00927193
0.00506636
0.00524475
0.00980063
0.00986286
0.00955067
0.00943464
0.0102354
0.0102503
0.0102611
0.0102676
0.0102645
0.0102448
0.0102043
0.010144
0.0100686
0.00998543
0.00990153
0.00982245
0.00975158
0.00969071
0.00964017
0.009599
0.00956588
0.00953941
0.00951827
0.00950133
0.00948764
0.00947645
0.00946716
0.00945933
0.00945262
0.00944676
0.00944156
0.00943687
0.00943257
0.00942858
0.00942483
0.00942126
0.00941784
0.00941453
0.0094113
0.00940813
0.009405
0.00940191
0.00939883
0.00939576
0.00939268
0.00938958
0.00938645
0.00938328
0.00938004
0.00937672
0.0093733
0.00936977
0.00936608
0.00936218
0.00935801
0.00935348
0.00934847
0.00934282
0.0093363
0.00932856
0.0093191
0.00930712
0.00929099
0.0092671
0.00922996
0.00917494
0.00906622
0.00866806
0.00778781
0.0079405
0.00902025
0.00933076
0.00935865
0.00932869
0.0102196
0.0102361
0.0102467
0.0102526
0.0102482
0.0102258
0.0101813
0.0101165
0.0100377
0.00995279
0.00986921
0.00979243
0.00972556
0.00966943
0.00962361
0.00958693
0.00955788
0.00953492
0.00951666
0.00950197
0.00948994
0.00947989
0.00947132
0.00946386
0.00945726
0.00945132
0.00944592
0.00944095
0.00943632
0.00943199
0.00942789
0.00942399
0.00942025
0.00941665
0.00941315
0.00940974
0.0094064
0.00940311
0.00939986
0.00939663
0.00939341
0.00939019
0.00938695
0.00938366
0.00938032
0.0093769
0.00937338
0.00936974
0.00936593
0.0093619
0.00935757
0.00935286
0.00934764
0.00934172
0.00933485
0.00932667
0.0093166
0.00930374
0.00928655
0.00926222
0.00922592
0.00916866
0.00906697
0.00886921
0.00861116
0.00869617
0.00908123
0.00925506
0.00931044
0.00929293
0.0102039
0.0102211
0.0102327
0.0102395
0.0102343
0.0102075
0.0101551
0.0100814
0.00999489
0.00990517
0.00982018
0.00974521
0.00968275
0.0096325
0.00959291
0.00956234
0.00953899
0.00952111
0.00950719
0.00949606
0.00948684
0.00947893
0.00947191
0.00946553
0.00945963
0.0094541
0.00944888
0.00944393
0.00943922
0.00943473
0.00943044
0.00942632
0.00942236
0.00941854
0.00941483
0.00941123
0.00940772
0.00940427
0.00940087
0.00939752
0.00939419
0.00939087
0.00938754
0.00938419
0.00938079
0.00937732
0.00937376
0.00937009
0.00936627
0.00936224
0.00935793
0.00935326
0.00934811
0.00934232
0.00933567
0.00932782
0.00931831
0.00930642
0.00929104
0.00927044
0.00924201
0.00920175
0.00914234
0.00905274
0.00895433
0.0090013
0.00919116
0.00927468
0.0093077
0.00929596
0.010187
0.0102029
0.0102155
0.0102234
0.0102168
0.0101828
0.0101183
0.0100314
0.00993426
0.00983837
0.00975209
0.00968008
0.00962372
0.00958125
0.00954989
0.00952737
0.00951152
0.00950031
0.00949211
0.00948571
0.00948029
0.00947534
0.00947055
0.00946578
0.009461
0.0094562
0.00945141
0.00944667
0.00944201
0.00943747
0.00943305
0.00942876
0.0094246
0.00942058
0.00941668
0.00941288
0.00940919
0.00940558
0.00940204
0.00939856
0.00939512
0.00939171
0.00938831
0.00938491
0.00938148
0.009378
0.00937445
0.00937081
0.00936704
0.00936311
0.00935894
0.00935447
0.00934961
0.00934423
0.00933815
0.00933113
0.00932285
0.00931284
0.00930043
0.00928471
0.00926457
0.00923888
0.00920639
0.00916642
0.00913239
0.00916232
0.00925187
0.00929968
0.00932022
0.00931708
0.0101678
0.0101803
0.010194
0.0102033
0.0101948
0.0101505
0.0100689
0.00996459
0.00985453
0.00975221
0.00966585
0.00959882
0.00955076
0.00951808
0.0094968
0.00948403
0.00947715
0.00947387
0.00947245
0.00947168
0.00947081
0.00946945
0.00946741
0.0094647
0.00946139
0.0094576
0.00945347
0.00944912
0.00944465
0.00944015
0.00943567
0.00943126
0.00942694
0.00942274
0.00941865
0.00941468
0.00941081
0.00940704
0.00940336
0.00939976
0.00939622
0.00939273
0.00938927
0.00938583
0.00938239
0.00937894
0.00937545
0.0093719
0.00936827
0.00936452
0.00936062
0.0093565
0.00935212
0.00934737
0.00934216
0.00933634
0.00932972
0.00932205
0.00931302
0.00930227
0.0092895
0.00927468
0.0092583
0.0092421
0.00923385
0.00925335
0.00929655
0.00932639
0.00934129
0.00934625
0.0101447
0.0101518
0.0101663
0.0101775
0.0101673
0.0101091
0.0100048
0.00987921
0.00975519
0.00964774
0.00956397
0.00950501
0.00946777
0.00944686
0.00943734
0.00943567
0.00943879
0.00944421
0.00945015
0.00945548
0.00945956
0.00946212
0.00946313
0.00946272
0.00946111
0.00945852
0.0094552
0.00945136
0.00944718
0.00944279
0.00943831
0.00943382
0.00942937
0.00942501
0.00942075
0.0094166
0.00941256
0.00940864
0.00940483
0.0094011
0.00939747
0.0093939
0.0093904
0.00938695
0.00938353
0.00938013
0.00937674
0.00937333
0.0093699
0.00936643
0.00936288
0.00935924
0.00935548
0.00935154
0.00934739
0.00934296
0.00933818
0.00933297
0.00932725
0.00932097
0.00931418
0.00930721
0.00930077
0.00929643
0.00929793
0.00931181
0.00933534
0.00935416
0.00936609
0.00937705
0.0101141
0.0101146
0.01013
0.0101428
0.0101323
0.0100571
0.00992406
0.00977437
0.00963722
0.00952792
0.00945094
0.00940401
0.00938032
0.00937282
0.00937627
0.00938647
0.00939997
0.00941423
0.00942756
0.00943897
0.00944797
0.00945444
0.00945852
0.00946045
0.00946058
0.00945926
0.00945681
0.00945353
0.00944968
0.00944545
0.009441
0.00943646
0.0094319
0.00942738
0.00942296
0.00941864
0.00941444
0.00941036
0.00940641
0.00940258
0.00939885
0.00939522
0.00939168
0.00938823
0.00938484
0.00938153
0.00937827
0.00937504
0.00937186
0.00936871
0.00936559
0.0093625
0.00935944
0.0093564
0.00935339
0.00935042
0.00934748
0.0093446
0.00934183
0.00933926
0.00933705
0.00933552
0.00933521
0.00933697
0.00934239
0.00935346
0.00936845
0.00938127
0.0093914
0.00940613
0.0100685
0.0100626
0.0100818
0.0100956
0.0100872
0.00999328
0.00982583
0.00965087
0.00950382
0.00939805
0.00933325
0.00930242
0.00929478
0.00930187
0.00931875
0.00934072
0.00936419
0.00938673
0.00940689
0.00942386
0.00943736
0.00944743
0.00945433
0.00945844
0.0094602
0.00946007
0.00945846
0.00945573
0.00945221
0.00944815
0.00944374
0.00943915
0.00943448
0.00942983
0.00942524
0.00942076
0.0094164
0.00941217
0.00940808
0.00940414
0.00940032
0.00939663
0.00939307
0.00938962
0.00938628
0.00938306
0.00937994
0.00937693
0.00937402
0.00937123
0.00936858
0.00936607
0.00936374
0.00936162
0.00935975
0.00935817
0.00935694
0.00935614
0.00935587
0.00935625
0.00935743
0.00935961
0.00936308
0.00936816
0.00937535
0.00938509
0.00939624
0.00940606
0.00941523
0.00943207
0.0099955
0.00998372
0.0100124
0.0100331
0.010029
0.00991676
0.00970988
0.00951124
0.00936049
0.00926564
0.00921907
0.00920746
0.00921724
0.0092394
0.00926926
0.00930201
0.00933423
0.00936388
0.00938979
0.00941143
0.0094287
0.0094418
0.00945109
0.00945706
0.00946023
0.00946114
0.00946025
0.00945801
0.00945478
0.00945086
0.00944648
0.00944184
0.00943707
0.00943228
0.00942754
0.00942289
0.00941837
0.009414
0.00940978
0.00940573
0.00940183
0.00939808
0.00939449
0.00939106
0.00938777
0.00938465
0.00938169
0.00937888
0.00937626
0.00937384
0.00937165
0.00936972
0.00936811
0.00936687
0.00936605
0.00936575
0.00936604
0.00936702
0.00936879
0.00937145
0.00937511
0.00937983
0.00938568
0.00939267
0.00940081
0.00940997
0.0094194
0.00942778
0.00943648
0.00945437
0.00988057
0.00986175
0.00990314
0.00994581
0.00995594
0.00982835
0.00957577
0.00935853
0.00921387
0.00913922
0.00911708
0.00912625
0.00915266
0.00918944
0.00923091
0.00927261
0.00931178
0.00934691
0.00937721
0.00940239
0.00942255
0.00943798
0.00944913
0.00945655
0.00946083
0.00946255
0.00946224
0.00946038
0.00945737
0.00945355
0.00944918
0.00944448
0.0094396
0.00943467
0.00942978
0.00942498
0.0094203
0.00941579
0.00941145
0.00940729
0.00940331
0.00939951
0.0093959
0.00939247
0.00938924
0.00938621
0.00938339
0.00938079
0.00937844
0.00937637
0.00937462
0.00937323
0.00937228
0.00937184
0.00937197
0.00937278
0.00937435
0.00937679
0.00938018
0.00938459
0.00939004
0.00939651
0.00940391
0.00941207
0.00942077
0.00942973
0.00943841
0.00944612
0.0094546
0.00947288
0.00970473
0.00967812
0.00973151
0.00981239
0.00987026
0.00973602
0.00942682
0.00919713
0.00907065
0.00902628
0.00903198
0.00906276
0.00910517
0.00915442
0.00920497
0.00925321
0.00929718
0.00933602
0.00936929
0.00939687
0.00941902
0.00943609
0.00944856
0.00945701
0.00946207
0.00946436
0.00946445
0.00946285
0.00945997
0.00945619
0.00945179
0.00944701
0.00944202
0.00943695
0.00943191
0.00942696
0.00942214
0.00941749
0.00941303
0.00940876
0.0094047
0.00940085
0.00939721
0.0093938
0.00939061
0.00938766
0.00938497
0.00938255
0.00938044
0.00937868
0.00937731
0.0093764
0.00937603
0.00937626
0.00937719
0.00937892
0.00938154
0.00938513
0.00938976
0.00939546
0.0094022
0.00940987
0.0094183
0.0094272
0.00943628
0.00944521
0.00945358
0.00946099
0.00946936
0.00948771
0.00945281
0.00942282
0.00948412
0.00962689
0.00978838
0.00966851
0.00929018
0.00904278
0.00894051
0.00893378
0.00896638
0.00901516
0.00907241
0.00913187
0.00918909
0.00924173
0.00928866
0.00932967
0.00936463
0.00939363
0.00941708
0.00943528
0.00944865
0.00945781
0.00946341
0.0094661
0.00946646
0.00946502
0.00946223
0.00945847
0.00945404
0.00944918
0.00944409
0.00943891
0.00943374
0.00942866
0.00942372
0.00941895
0.00941439
0.00941004
0.00940591
0.00940201
0.00939836
0.00939495
0.00939179
0.00938891
0.00938633
0.00938407
0.00938217
0.00938067
0.00937963
0.00937912
0.00937922
0.00938002
0.00938161
0.00938408
0.00938752
0.00939202
0.00939761
0.00940429
0.00941199
0.00942055
0.00942972
0.00943918
0.00944857
0.00945756
0.00946578
0.00947298
0.0094812
0.00949948
0.00912489
0.00910706
0.00916006
0.0093845
0.00976448
0.00969481
0.00918495
0.00890835
0.0088328
0.00885249
0.00891006
0.00897756
0.00904756
0.00911494
0.0091771
0.00923293
0.00928196
0.00932417
0.00935965
0.0093892
0.00941356
0.00943269
0.00944683
0.00945659
0.00946268
0.00946576
0.00946644
0.00946525
0.00946265
0.00945903
0.00945469
0.0094499
0.00944484
0.00943966
0.00943449
0.00942939
0.00942443
0.00941965
0.00941507
0.00941071
0.00940658
0.0094027
0.00939908
0.00939571
0.00939264
0.00938986
0.00938741
0.00938532
0.00938363
0.00938239
0.00938167
0.00938155
0.0093821
0.00938343
0.00938562
0.00938879
0.009393
0.00939834
0.00940483
0.00941243
0.00942105
0.00943048
0.00944042
0.00945049
0.00946026
0.00946936
0.00947738
0.00948405
0.00949154
0.00950931
0.0087833
0.00877485
0.00868966
0.00876466
0.00991175
0.00994296
0.00876388
0.00865838
0.00869686
0.00876638
0.00885583
0.00894638
0.00902994
0.00910482
0.00917126
0.00922965
0.00928033
0.0093236
0.00935972
0.00938922
0.0094135
0.00943301
0.00944738
0.00945723
0.00946334
0.00946643
0.0094671
0.00946589
0.00946327
0.00945963
0.00945527
0.00945045
0.00944536
0.00944016
0.00943496
0.00942984
0.00942486
0.00942006
0.00941547
0.0094111
0.00940698
0.00940311
0.00939951
0.00939619
0.00939316
0.00939046
0.0093881
0.00938612
0.00938458
0.00938352
0.00938301
0.00938313
0.00938398
0.00938564
0.00938822
0.00939181
0.00939649
0.00940232
0.00940932
0.00941743
0.00942653
0.00943639
0.0094467
0.00945703
0.00946693
0.00947599
0.00948374
0.0094898
0.00949621
0.00951308
0.00870124
0.00855478
0.00777674
0.0068256
0.0103804
0.0105571
0.00703778
0.00775789
0.00840541
0.008709
0.00887339
0.008992
0.00908746
0.00916767
0.00923658
0.00929602
0.00934679
0.00938934
0.00942402
0.00945135
0.00947276
0.00948925
0.00950053
0.00950692
0.0095094
0.00950881
0.00950586
0.00950114
0.00949515
0.00948831
0.00948096
0.00947335
0.0094657
0.00945814
0.00945079
0.00944371
0.00943695
0.00943054
0.00942449
0.0094188
0.00941347
0.00940848
0.00940382
0.0093995
0.00939551
0.00939184
0.0093885
0.00938551
0.00938286
0.0093806
0.00937875
0.00937737
0.00937649
0.00937618
0.0093765
0.00937752
0.0093793
0.00938189
0.00938532
0.0093896
0.00939472
0.00940063
0.00940726
0.00941456
0.0094225
0.00943114
0.00944049
0.00945067
0.00946391
0.00948716
)
;

boundaryField
{
    walls
    {
        type            zeroGradient;
    }
    top
    {
        type            zeroGradient;
    }
    bottom
    {
        type            zeroGradient;
    }
    frontAndBack
    {
        type            empty;
    }
    inlet
    {
        type            zeroGradient;
    }
    outlet
    {
        type            fixedValue;
        value           uniform 0;
    }
}


// ************************************************************************* //
