/*--------------------------------*- C++ -*----------------------------------*\
  =========                 |
  \\      /  F ield         | OpenFOAM: The Open Source CFD Toolbox
   \\    /   O peration     | Website:  https://openfoam.org
    \\  /    A nd           | Version:  13
     \\/     M anipulation  |
\*---------------------------------------------------------------------------*/
FoamFile
{
    format      ascii;
    class       surfaceScalarField;
    location    "0";
    object      phi;
}
// * * * * * * * * * * * * * * * * * * * * * * * * * * * * * * * * * * * * * //

dimensions      [0 3 -1 0 0 0 0];

internalField   nonuniform List<scalar> 
2154
(
1.44891e-06
-1.44891e-06
4.77406e-06
-3.32515e-06
1.04616e-05
-5.68749e-06
1.86896e-05
-8.22806e-06
2.90748e-05
-1.03852e-05
4.06731e-05
-1.15983e-05
5.22653e-05
-1.15922e-05
6.27246e-05
-1.04593e-05
7.12513e-05
-8.52675e-06
7.74391e-05
-6.18776e-06
8.12293e-05
-3.79016e-06
8.28178e-05
-1.58857e-06
8.25448e-05
2.73007e-07
8.07885e-05
1.75635e-06
7.79072e-05
2.88127e-06
7.42307e-05
3.6765e-06
7.00508e-05
4.17996e-06
6.56137e-05
4.43707e-06
6.11175e-05
4.49617e-06
5.67134e-05
4.40414e-06
5.25099e-05
4.20352e-06
4.85791e-05
3.93077e-06
4.49633e-05
3.61575e-06
4.16816e-05
3.28172e-06
3.87356e-05
2.946e-06
3.61148e-05
2.62079e-06
3.38007e-05
2.31411e-06
3.177e-05
2.0307e-06
2.99972e-05
1.77285e-06
2.84561e-05
1.54109e-06
2.71214e-05
1.33473e-06
2.59691e-05
1.1523e-06
2.49772e-05
9.91882e-07
2.41259e-05
8.51312e-07
2.33975e-05
7.28358e-07
2.27767e-05
6.20812e-07
2.22502e-05
5.26543e-07
2.18067e-05
4.43528e-07
2.14368e-05
3.69854e-07
2.11331e-05
3.037e-07
2.08898e-05
2.43314e-07
2.07028e-05
1.86971e-07
2.05699e-05
1.32931e-07
2.04905e-05
7.93955e-08
2.0466e-05
2.4524e-08
2.04997e-05
-3.36867e-08
2.05973e-05
-9.75983e-08
2.07676e-05
-1.70285e-07
2.10229e-05
-2.55358e-07
2.13804e-05
-3.57424e-07
2.18628e-05
-4.82467e-07
2.25012e-05
-6.38366e-07
2.33368e-05
-8.35648e-07
2.44254e-05
-1.08858e-06
2.58423e-05
-1.41684e-06
2.76902e-05
-1.84793e-06
3.01119e-05
-2.42174e-06
3.3317e-05
-3.20504e-06
3.76561e-05
-4.33913e-06
4.37856e-05
-6.12957e-06
5.28676e-05
-9.08201e-06
6.72929e-05
-1.44253e-05
9.85864e-05
-3.12935e-05
0.000208695
-0.000110109
2.53735e-05
-0.000305585
-0.000166445
-0.000319275
-5.29514e-05
-0.000113494
-1.98968e-05
-3.30547e-05
-5.93787e-06
-1.39589e-05
-5.93787e-06
2.73332e-06
-4.18223e-06
7.59069e-06
-8.18252e-06
1.53437e-05
-1.34405e-05
2.62e-05
-1.90844e-05
3.96602e-05
-2.38453e-05
5.45353e-05
-2.64734e-05
6.93337e-05
-2.63906e-05
8.27192e-05
-2.38448e-05
9.37638e-05
-1.95714e-05
0.000101992
-1.44155e-05
0.000107309
-9.10793e-06
0.0001099
-4.17934e-06
0.000110121
5.25199e-08
0.000108403
3.4742e-06
0.000105171
6.11287e-06
0.000100831
8.017e-06
9.57464e-05
9.26425e-06
9.02331e-05
9.9504e-06
8.45503e-05
1.01789e-05
7.89027e-05
1.00517e-05
7.34434e-05
9.66282e-06
6.828e-05
9.09418e-06
6.34815e-05
8.4142e-06
5.90859e-05
7.67734e-06
5.51068e-05
6.92506e-06
5.15402e-05
6.18741e-06
4.83695e-05
5.48487e-06
4.55699e-05
4.83025e-06
4.31123e-05
4.23045e-06
4.09654e-05
3.68804e-06
3.90976e-05
3.20251e-06
3.74786e-05
2.7713e-06
3.60799e-05
2.39058e-06
3.48754e-05
2.05577e-06
3.38418e-05
1.76201e-06
3.29582e-05
1.50437e-06
3.22067e-05
1.27802e-06
3.15719e-05
1.07832e-06
3.10409e-05
9.00855e-07
3.06033e-05
7.41371e-07
3.02508e-05
5.9577e-07
2.99778e-05
4.60005e-07
2.97807e-05
3.29984e-07
2.96586e-05
2.01474e-07
2.96131e-05
7.00179e-08
2.96485e-05
-6.90818e-08
2.97723e-05
-2.21397e-07
2.99959e-05
-3.93871e-07
3.03355e-05
-5.94962e-07
3.08135e-05
-8.35356e-07
3.14599e-05
-1.12888e-06
3.23152e-05
-1.49373e-06
3.3434e-05
-1.95439e-06
3.48898e-05
-2.54444e-06
3.67843e-05
-3.31127e-06
3.92605e-05
-4.32412e-06
4.25283e-05
-5.68955e-06
4.69081e-05
-7.58482e-06
5.29013e-05
-1.03324e-05
6.13139e-05
-1.45421e-05
7.3609e-05
-2.13772e-05
9.27082e-05
-3.35245e-05
0.000120448
-5.90331e-05
0.000127289
-0.00011695
2.97644e-05
-0.00020806
-7.15218e-05
-0.000217989
-6.15668e-05
-0.000123449
-3.23776e-05
-6.22439e-05
-1.26402e-05
-3.36962e-05
-1.85781e-05
3.44652e-06
-7.62876e-06
9.29454e-06
-1.40305e-05
1.84071e-05
-2.25531e-05
3.11098e-05
-3.1787e-05
4.68265e-05
-3.95621e-05
6.40748e-05
-4.37216e-05
8.10508e-05
-4.33665e-05
9.62564e-05
-3.90505e-05
0.000108745
-3.20602e-05
0.000118092
-2.37627e-05
0.000124265
-1.52803e-05
0.000127484
-7.39805e-06
0.000128116
-5.80074e-07
0.000126595
4.99484e-06
0.000123376
9.33198e-06
0.000118889
1.25048e-05
0.000113522
1.46305e-05
0.000107617
1.58559e-05
0.000101455
1.63406e-05
9.52643e-05
1.62427e-05
8.92183e-05
1.57089e-05
8.3444e-05
1.48685e-05
7.80276e-05
1.38306e-05
7.30216e-05
1.26833e-05
6.84515e-05
1.14952e-05
6.43222e-05
1.03167e-05
6.06235e-05
9.18355e-06
5.73348e-05
8.11891e-06
5.4429e-05
7.13633e-06
5.1875e-05
6.24201e-06
4.96406e-05
5.43684e-06
4.76939e-05
4.71804e-06
4.6004e-05
4.08043e-06
4.45424e-05
3.51739e-06
4.32829e-05
3.02155e-06
4.2202e-05
2.58525e-06
4.12791e-05
2.20087e-06
4.04965e-05
1.86098e-06
3.9839e-05
1.55839e-06
3.92941e-05
1.2862e-06
3.88522e-05
1.03764e-06
3.85062e-05
8.06065e-07
3.82515e-05
5.84705e-07
3.80864e-05
3.66553e-07
3.80122e-05
1.44184e-07
3.80334e-05
-9.02791e-08
3.81579e-05
-3.45895e-07
3.83978e-05
-6.33759e-07
3.87703e-05
-9.67493e-07
3.92992e-05
-1.36419e-06
4.00161e-05
-1.84577e-06
4.09632e-05
-2.44086e-06
4.21964e-05
-3.18764e-06
4.37901e-05
-4.13806e-06
4.58436e-05
-5.36477e-06
4.84919e-05
-6.9725e-06
5.19205e-05
-9.11815e-06
5.63835e-05
-1.20478e-05
6.22165e-05
-1.61653e-05
6.98244e-05
-2.215e-05
7.96088e-05
-3.11616e-05
9.13865e-05
-4.53022e-05
0.000100894
-6.85408e-05
9.00132e-05
-0.000106069
3.4144e-05
-0.00015219
-2.50133e-05
-0.000158832
-3.54883e-05
-0.000112974
-2.44032e-05
-7.3329e-05
-1.09496e-05
-4.71498e-05
-2.95277e-05
3.57906e-06
-1.12078e-05
9.7449e-06
-2.01964e-05
1.96014e-05
-3.24097e-05
3.36697e-05
-4.58553e-05
5.12903e-05
-5.71827e-05
7.05215e-05
-6.29528e-05
8.90953e-05
-6.19403e-05
0.000105339
-5.5294e-05
0.000118371
-4.50925e-05
0.000127934
-3.3326e-05
0.000134161
-2.15068e-05
0.000137388
-1.06251e-05
0.000138037
-1.22938e-06
0.000136552
6.48025e-06
0.000133384
1.24997e-05
0.000128962
1.69273e-05
0.000123666
1.99258e-05
0.000117825
2.16967e-05
0.00011171
2.24558e-05
0.000105538
2.2415e-05
9.94764e-05
2.17702e-05
9.36509e-05
2.0694e-05
8.81488e-05
1.93327e-05
8.30267e-05
1.78055e-05
7.83156e-05
1.62062e-05
7.40271e-05
1.46052e-05
7.01574e-05
1.30532e-05
6.66919e-05
1.15844e-05
6.36087e-05
1.02196e-05
6.0881e-05
8.9697e-06
5.84799e-05
7.83798e-06
5.63755e-05
6.82235e-06
5.45389e-05
5.91708e-06
5.29421e-05
5.11415e-06
5.15595e-05
4.40422e-06
5.03674e-05
3.77731e-06
4.9345e-05
3.22328e-06
4.84739e-05
2.73211e-06
4.77383e-05
2.29398e-06
4.71251e-05
1.89935e-06
4.66239e-05
1.53888e-06
4.62267e-05
1.20328e-06
4.59282e-05
8.83126e-07
4.57262e-05
5.68624e-07
4.5621e-05
2.4938e-07
4.56164e-05
-8.57506e-08
4.57197e-05
-4.49213e-07
4.59419e-05
-8.55942e-07
4.62987e-05
-1.32428e-06
4.68116e-05
-1.87704e-06
4.75089e-05
-2.54304e-06
4.84274e-05
-3.35937e-06
4.96143e-05
-4.37462e-06
5.11298e-05
-5.65354e-06
5.30493e-05
-7.28423e-06
5.5466e-05
-9.38917e-06
5.84906e-05
-1.21428e-05
6.22422e-05
-1.57994e-05
6.68141e-05
-2.07372e-05
7.2184e-05
-2.752e-05
7.79949e-05
-3.69724e-05
8.29531e-05
-5.02604e-05
8.32492e-05
-6.88368e-05
7.04629e-05
-9.32832e-05
3.62905e-05
-0.000118018
-8.70267e-08
-0.000122454
-1.36584e-05
-9.94024e-05
-1.26012e-05
-7.43862e-05
-6.39508e-06
-5.3356e-05
-3.59228e-05
3.12821e-06
-1.4336e-05
8.95665e-06
-2.60248e-05
1.90058e-05
-4.24588e-05
3.41264e-05
-6.09759e-05
5.35702e-05
-7.66265e-05
7.46684e-05
-8.40509e-05
9.44612e-05
-8.17332e-05
0.000111094
-7.19267e-05
0.000123857
-5.78558e-05
0.000132782
-4.22509e-05
0.000138267
-2.69918e-05
0.000140836
-1.31942e-05
0.000141008
-1.40096e-06
0.000139253
8.23518e-06
0.000136022
1.57307e-05
0.000131722
2.12277e-05
0.000126698
2.49498e-05
0.000121234
2.71602e-05
0.000115559
2.81312e-05
0.00010985
2.81234e-05
0.000104246
2.73744e-05
9.88485e-05
2.60916e-05
9.37305e-05
2.44507e-05
8.8941e-05
2.2595e-05
8.45089e-05
2.06383e-05
8.04473e-05
1.86669e-05
7.67565e-05
1.6744e-05
7.34276e-05
1.49132e-05
7.04449e-05
1.32024e-05
6.77877e-05
1.16268e-05
6.5433e-05
1.01927e-05
6.33561e-05
8.89924e-06
6.15323e-05
7.74086e-06
5.99376e-05
6.70889e-06
5.8549e-05
5.79274e-06
5.73456e-05
4.98074e-06
5.63081e-05
4.26079e-06
5.54195e-05
3.62074e-06
5.46648e-05
3.04858e-06
5.40317e-05
2.53249e-06
5.35098e-05
2.06082e-06
5.30911e-05
1.62196e-06
5.27701e-05
1.2041e-06
5.25438e-05
7.94952e-07
5.24117e-05
3.81479e-07
5.23764e-05
-5.04586e-08
5.24434e-05
-5.16252e-07
5.26214e-05
-1.03394e-06
5.29228e-05
-1.62564e-06
5.33642e-05
-2.31844e-06
5.39671e-05
-3.14599e-06
5.47585e-05
-4.15078e-06
5.5771e-05
-5.38711e-06
5.70428e-05
-6.92535e-06
5.86164e-05
-8.85783e-06
6.05344e-05
-1.13071e-05
6.28293e-05
-1.44376e-05
6.5501e-05
-1.84712e-05
6.84693e-05
-2.37055e-05
7.14792e-05
-3.05299e-05
7.39255e-05
-3.94187e-05
7.45288e-05
-5.08636e-05
7.08183e-05
-6.51264e-05
5.89414e-05
-8.14062e-05
3.6533e-05
-9.56096e-05
1.26089e-05
-9.85299e-05
2.1811e-07
-8.70116e-05
-3.33299e-06
-7.08351e-05
-2.28939e-06
-5.43996e-05
-3.82122e-05
2.08673e-06
-1.64228e-05
6.92354e-06
-3.08616e-05
1.66286e-05
-5.21639e-05
3.2565e-05
-7.69123e-05
5.39255e-05
-9.79871e-05
7.69233e-05
-0.000107049
9.76031e-05
-0.000102413
0.000113976
-8.82997e-05
0.000125666
-6.95457e-05
0.000133136
-4.9721e-05
0.000137145
-3.10004e-05
0.000138453
-1.45031e-05
0.000137695
-6.42789e-07
0.000135386
1.05445e-05
0.00013198
1.91371e-05
0.000127842
2.53656e-05
0.000123253
2.95385e-05
0.000118424
3.19893e-05
0.000113511
3.30437e-05
0.000108632
3.30023e-05
0.000103875
3.2132e-05
9.9303e-05
3.06634e-05
9.4964e-05
2.87897e-05
9.08899e-05
2.66691e-05
8.71009e-05
2.44273e-05
8.36069e-05
2.21608e-05
8.04099e-05
1.9941e-05
7.7505e-05
1.78181e-05
7.48824e-05
1.5825e-05
7.25283e-05
1.39809e-05
7.04267e-05
1.22944e-05
6.85597e-05
1.07662e-05
6.69089e-05
9.39163e-06
6.5456e-05
8.16186e-06
6.41829e-05
7.06578e-06
6.30729e-05
6.09075e-06
6.21102e-05
5.22343e-06
6.12808e-05
4.45019e-06
6.0572e-05
3.75739e-06
5.9973e-05
3.13152e-06
5.94746e-05
2.55914e-06
5.90698e-05
2.02681e-06
5.87531e-05
1.52082e-06
5.85211e-05
1.02694e-06
5.83725e-05
5.30051e-07
5.83084e-05
1.36683e-08
5.8332e-05
-5.39913e-07
5.8449e-05
-1.15092e-06
5.86673e-05
-1.84397e-06
5.89976e-05
-2.64868e-06
5.94528e-05
-3.60116e-06
6.0048e-05
-4.74599e-06
6.07995e-05
-6.13864e-06
6.17228e-05
-7.84867e-06
6.28287e-05
-9.96371e-06
6.41159e-05
-1.25944e-05
6.5558e-05
-1.58797e-05
6.7079e-05
-1.99922e-05
6.85129e-05
-2.51393e-05
6.95359e-05
-3.15529e-05
6.95676e-05
-3.94505e-05
6.7642e-05
-4.8938e-05
6.23075e-05
-5.97919e-05
5.18835e-05
-7.09822e-05
3.61115e-05
-7.98376e-05
1.95731e-05
-8.19915e-05
8.42398e-06
-7.58625e-05
2.73445e-06
-6.51456e-05
5.84272e-07
-5.22494e-05
-3.76279e-05
4.29381e-07
-1.68521e-05
3.61284e-06
-3.40451e-05
1.24122e-05
-6.09632e-05
2.89252e-05
-9.34253e-05
5.24187e-05
-0.000121481
7.74294e-05
-0.000132059
9.86012e-05
-0.000123585
0.000113964
-0.000103663
0.000123722
-7.93035e-05
0.000128942
-5.49408e-05
0.000130825
-3.28839e-05
0.000130395
-1.40732e-05
0.000128396
1.35658e-06
0.000125399
1.35411e-05
0.000121837
2.26999e-05
0.000117997
2.92055e-05
0.00011406
3.34756e-05
0.000110134
3.59152e-05
0.000106284
3.68933e-05
0.000102552
3.67348e-05
9.89637e-05
3.572e-05
9.55404e-05
3.40866e-05
9.22972e-05
3.20329e-05
8.92454e-05
2.97209e-05
8.63931e-05
2.72797e-05
8.37447e-05
2.48092e-05
8.13017e-05
2.2384e-05
7.90623e-05
2.00576e-05
7.70217e-05
1.78656e-05
7.5173e-05
1.58295e-05
7.35074e-05
1.396e-05
7.20146e-05
1.2259e-05
7.06834e-05
1.07228e-05
6.95021e-05
9.34314e-06
6.8459e-05
8.10883e-06
6.75428e-05
7.00702e-06
6.67424e-05
6.02383e-06
6.60477e-05
5.14487e-06
6.54495e-05
4.3556e-06
6.49395e-05
3.64144e-06
6.45108e-05
2.98784e-06
6.41575e-05
2.38014e-06
6.38749e-05
1.80339e-06
6.36598e-05
1.24207e-06
6.35101e-05
6.79699e-07
6.34253e-05
9.8489e-08
6.34063e-05
-5.20879e-07
6.34554e-05
-1.20008e-06
6.35761e-05
-1.96466e-06
6.37725e-05
-2.84503e-06
6.40489e-05
-3.87756e-06
6.4409e-05
-5.10606e-06
6.48539e-05
-6.58357e-06
6.53795e-05
-8.37428e-06
6.59715e-05
-1.05557e-05
6.65977e-05
-1.32205e-05
6.71956e-05
-1.64776e-05
6.76534e-05
-2.045e-05
6.77817e-05
-2.52676e-05
6.72752e-05
-3.10464e-05
6.56701e-05
-3.78453e-05
6.23145e-05
-4.55824e-05
5.64103e-05
-5.38877e-05
4.7293e-05
-6.18649e-05
3.52765e-05
-6.78211e-05
2.27955e-05
-6.95104e-05
1.29232e-05
-6.59902e-05
6.33208e-06
-5.85544e-05
2.35046e-06
-4.82678e-05
-3.52775e-05
-1.92039e-06
-1.49317e-05
-1.01622e-06
-3.49492e-05
6.30389e-06
-6.82833e-05
2.30712e-05
-0.000110193
4.90118e-05
-0.000147421
7.62067e-05
-0.000159254
9.73312e-05
-0.000144709
0.000110763
-0.000117094
0.000117644
-8.61853e-05
0.000119848
-5.71444e-05
0.000119083
-3.21191e-05
0.000116619
-1.1609e-05
0.000113301
4.67468e-06
0.000109724
1.71176e-05
0.000106231
2.61933e-05
0.000102975
3.24615e-05
9.9996e-05
3.64546e-05
9.72772e-05
3.8634e-05
9.47815e-05
3.9389e-05
9.24705e-05
3.90459e-05
9.03126e-05
3.78779e-05
8.82853e-05
3.61139e-05
8.63739e-05
3.39443e-05
8.45702e-05
3.15246e-05
8.28704e-05
2.89795e-05
8.12734e-05
2.64062e-05
7.97793e-05
2.38781e-05
7.83887e-05
2.14482e-05
7.71017e-05
1.91526e-05
7.59176e-05
1.70137e-05
7.48346e-05
1.5043e-05
7.38499e-05
1.32437e-05
7.29598e-05
1.16129e-05
7.21599e-05
1.01431e-05
7.1445e-05
8.82371e-06
7.08098e-05
7.64221e-06
7.02488e-05
6.58481e-06
6.97566e-05
5.63708e-06
6.9328e-05
4.78425e-06
6.8958e-05
4.01142e-06
6.86422e-05
3.30359e-06
6.83768e-05
2.6456e-06
6.81582e-05
2.02197e-06
6.79837e-05
1.41661e-06
6.78508e-05
8.1255e-07
6.77578e-05
1.91482e-07
6.77035e-05
-4.6654e-07
6.7687e-05
-1.18357e-06
6.77073e-05
-1.98495e-06
6.77626e-05
-2.90032e-06
6.78495e-05
-3.9645e-06
6.79619e-05
-5.21844e-06
6.80886e-05
-6.7103e-06
6.82107e-05
-8.49635e-06
6.82966e-05
-1.06417e-05
6.82959e-05
-1.32198e-05
6.81293e-05
-1.6311e-05
6.76761e-05
-1.99969e-05
6.67579e-05
-2.43494e-05
6.51214e-05
-2.94099e-05
6.24276e-05
-3.51515e-05
5.82641e-05
-4.14189e-05
5.22172e-05
-4.78408e-05
4.40728e-05
-5.37205e-05
3.42216e-05
-5.79699e-05
2.40339e-05
-5.93227e-05
1.51667e-05
-5.71231e-05
8.29423e-06
-5.1682e-05
3.34855e-06
-4.33221e-05
-3.19289e-05
-5.0186e-06
-9.91314e-06
-7.09525e-06
-3.28726e-05
-1.68336e-06
-7.36952e-05
1.49105e-05
-0.000126786
4.36753e-05
-0.000176186
7.32931e-05
-0.000188872
9.36068e-05
-0.000165023
0.000103959
-0.000127446
0.000106934
-8.91598e-05
0.00010543
-5.56407e-05
0.0001017
-2.83891e-05
9.71919e-05
-7.10107e-06
9.27962e-05
9.07038e-06
8.90329e-05
2.08809e-05
8.60545e-05
2.91718e-05
8.38084e-05
3.47076e-05
8.21604e-05
3.81025e-05
8.09619e-05
3.98326e-05
8.00797e-05
4.02712e-05
7.94075e-05
3.97181e-05
7.88662e-05
3.84191e-05
7.84002e-05
3.65799e-05
7.79721e-05
3.43724e-05
7.75586e-05
3.19381e-05
7.71466e-05
2.93915e-05
7.67307e-05
2.68221e-05
7.63106e-05
2.42982e-05
7.58891e-05
2.18697e-05
7.54706e-05
1.95711e-05
7.50601e-05
1.74242e-05
7.46624e-05
1.54406e-05
7.42819e-05
1.36242e-05
7.3922e-05
1.19728e-05
7.35851e-05
1.04799e-05
7.3273e-05
9.13581e-06
7.29865e-05
7.92875e-06
7.27256e-05
6.84567e-06
7.249e-05
5.87269e-06
7.22788e-05
4.99547e-06
7.20908e-05
4.19944e-06
7.19245e-05
3.46988e-06
7.17783e-05
2.79181e-06
7.16503e-05
2.14992e-06
7.15386e-05
1.52835e-06
7.14407e-05
9.10367e-07
7.13542e-05
2.78013e-07
7.1276e-05
-3.88318e-07
7.12025e-05
-1.11007e-06
7.11289e-05
-1.91133e-06
7.10484e-05
-2.81983e-06
7.09514e-05
-3.86748e-06
7.08239e-05
-5.09099e-06
7.06459e-05
-6.53232e-06
7.03885e-05
-8.23887e-06
7.00099e-05
-1.02631e-05
6.94511e-05
-1.2661e-05
6.86291e-05
-1.5489e-05
6.74296e-05
-1.87974e-05
6.56997e-05
-2.26195e-05
6.32429e-05
-2.69531e-05
5.98241e-05
-3.17327e-05
5.51942e-05
-3.67889e-05
4.91533e-05
-4.17998e-05
4.16768e-05
-4.62441e-05
3.31058e-05
-4.93989e-05
2.42621e-05
-5.04789e-05
1.61175e-05
-4.89785e-05
9.24622e-06
-4.48107e-05
3.85332e-06
-3.79292e-05
-2.80756e-05
-8.70292e-06
-1.21022e-06
-1.4398e-05
-2.71775e-05
-1.15472e-05
-7.65459e-05
4.58194e-06
-0.000142916
3.64856e-05
-0.00020809
6.8872e-05
-0.000221258
8.72704e-05
-0.000183422
9.31111e-05
-0.000133287
9.10939e-05
-8.71426e-05
8.53601e-05
-4.99069e-05
7.86734e-05
-2.17024e-05
7.2509e-05
-9.36691e-07
6.76745e-05
1.39049e-05
6.44227e-05
2.41328e-05
6.25777e-05
3.10167e-05
6.1833e-05
3.54523e-05
6.18823e-05
3.80532e-05
6.24671e-05
3.92479e-05
6.33842e-05
3.9354e-05
6.44827e-05
3.86196e-05
6.5655e-05
3.72469e-05
6.68262e-05
3.54087e-05
6.79454e-05
3.32531e-05
6.89801e-05
3.09035e-05
6.99117e-05
2.84599e-05
7.07325e-05
2.60013e-05
7.14424e-05
2.35883e-05
7.20465e-05
2.12656e-05
7.25533e-05
1.90643e-05
7.2973e-05
1.70045e-05
7.33164e-05
1.50972e-05
7.35942e-05
1.33464e-05
7.38164e-05
1.17506e-05
7.39921e-05
1.03043e-05
7.41291e-05
8.99881e-06
7.42342e-05
7.82364e-06
7.4313e-05
6.76683e-06
7.43701e-05
5.81558e-06
7.4409e-05
4.95659e-06
7.44323e-05
4.17621e-06
7.44415e-05
3.46059e-06
7.44377e-05
2.79562e-06
7.44208e-05
2.16685e-06
7.43898e-05
1.55931e-06
7.43429e-05
9.57256e-07
7.42771e-05
3.43855e-07
7.41881e-05
-2.99266e-07
7.407e-05
-9.92056e-07
7.39153e-05
-1.75654e-06
7.37131e-05
-2.61763e-06
7.3449e-05
-3.60346e-06
7.31038e-05
-4.74572e-06
7.26511e-05
-6.0797e-06
7.20563e-05
-7.64398e-06
7.12727e-05
-9.47954e-06
7.02394e-05
-1.16277e-05
6.88769e-05
-1.41265e-05
6.70841e-05
-1.70046e-05
6.47364e-05
-2.02718e-05
6.16876e-05
-2.39043e-05
5.77798e-05
-2.7825e-05
5.28689e-05
-3.1878e-05
4.68706e-05
-3.58015e-05
3.98356e-05
-3.92091e-05
3.20388e-05
-4.16021e-05
2.40102e-05
-4.24503e-05
1.63763e-05
-4.13446e-05
9.62007e-06
-3.80545e-05
4.06761e-06
-3.23767e-05
-2.4008e-05
-1.23645e-05
1.11543e-05
-2.21003e-05
-1.74417e-05
-2.27566e-05
-7.58896e-05
-7.78008e-06
-0.000157892
2.76991e-05
-0.000243569
6.3381e-05
-0.00025694
7.82163e-05
-0.000198257
7.77676e-05
-0.000132838
6.97189e-05
-7.90939e-05
5.95797e-05
-3.97678e-05
5.03825e-05
-1.25052e-05
4.35182e-05
5.92758e-06
3.93622e-05
1.80609e-05
3.75264e-05
2.59685e-05
3.74582e-05
3.10849e-05
3.8639e-05
3.42716e-05
4.06467e-05
3.60454e-05
4.31625e-05
3.6732e-05
4.59519e-05
3.65647e-05
4.88465e-05
3.5725e-05
5.17306e-05
3.43627e-05
5.45237e-05
3.26156e-05
5.71695e-05
3.06073e-05
5.96313e-05
2.84417e-05
6.18879e-05
2.62032e-05
6.3931e-05
2.39582e-05
6.57616e-05
2.17578e-05
6.73872e-05
1.96399e-05
6.88202e-05
1.76314e-05
7.00752e-05
1.57495e-05
7.11683e-05
1.40041e-05
7.21158e-05
1.23989e-05
7.29336e-05
1.09329e-05
7.36365e-05
9.60139e-06
7.42381e-05
8.39717e-06
7.47507e-05
7.31107e-06
7.51849e-05
6.33263e-06
7.55499e-05
5.45056e-06
7.58535e-05
4.65303e-06
7.61018e-05
3.92786e-06
7.62998e-05
3.26263e-06
7.64507e-05
2.64467e-06
7.65566e-05
2.06098e-06
7.66178e-05
1.4981e-06
7.66331e-05
9.41945e-07
7.65995e-05
3.77468e-07
7.65119e-05
-2.117e-07
7.63631e-05
-8.43276e-07
7.61432e-05
-1.53656e-06
7.58385e-05
-2.313e-06
7.54315e-05
-3.19645e-06
7.48991e-05
-4.21325e-06
7.42114e-05
-5.39205e-06
7.33307e-05
-6.7633e-06
7.22093e-05
-8.3581e-06
7.07877e-05
-1.02061e-05
6.89935e-05
-1.23323e-05
6.67403e-05
-1.47514e-05
6.39292e-05
-1.74606e-05
6.04534e-05
-2.04285e-05
5.62101e-05
-2.35816e-05
5.11199e-05
-2.67879e-05
4.51607e-05
-2.98423e-05
3.84103e-05
-3.24587e-05
3.10899e-05
-3.42817e-05
2.35708e-05
-3.49312e-05
1.62992e-05
-3.4073e-05
9.69182e-06
-3.14471e-05
4.1263e-06
-2.68112e-05
-1.98817e-05
-1.48239e-05
2.59782e-05
-2.84932e-05
-3.77248e-06
-3.38947e-05
-7.04881e-05
-2.17945e-05
-0.000169992
1.80207e-05
-0.000283384
5.75051e-05
-0.000296425
6.6357e-05
-0.000207109
5.74464e-05
-0.000123928
4.25996e-05
-6.42471e-05
2.86982e-05
-2.58664e-05
1.84262e-05
-2.23321e-06
1.24307e-05
1.19231e-05
1.01081e-05
2.03836e-05
1.04403e-05
2.56363e-05
1.25809e-05
2.89444e-05
1.59021e-05
3.09504e-05
1.99473e-05
3.20002e-05
2.4391e-05
3.22883e-05
2.8999e-05
3.19567e-05
3.36074e-05
3.11166e-05
3.81081e-05
2.98621e-05
4.24244e-05
2.82994e-05
4.64999e-05
2.65318e-05
5.02966e-05
2.4645e-05
5.37929e-05
2.27068e-05
5.6981e-05
2.07701e-05
5.98635e-05
1.88753e-05
6.24506e-05
1.70528e-05
6.4758e-05
1.5324e-05
6.68045e-05
1.37031e-05
6.86106e-05
1.2198e-05
7.01975e-05
1.0812e-05
7.15861e-05
9.54428e-06
7.27963e-05
8.3912e-06
7.38467e-05
7.3468e-06
7.47542e-05
6.40351e-06
7.55342e-05
5.55263e-06
7.62001e-05
4.7847e-06
7.67633e-05
4.08977e-06
7.72336e-05
3.45756e-06
7.76187e-05
2.87753e-06
7.79245e-05
2.33894e-06
7.81547e-05
1.83075e-06
7.83113e-05
1.34155e-06
7.83938e-05
8.59446e-07
7.83995e-05
3.71751e-07
7.83231e-05
-1.35283e-07
7.81563e-05
-6.76544e-07
7.78879e-05
-1.26808e-06
7.75023e-05
-1.92747e-06
7.69799e-05
-2.67398e-06
7.62951e-05
-3.52853e-06
7.54166e-05
-4.51347e-06
7.43052e-05
-5.65197e-06
7.29141e-05
-6.96693e-06
7.11871e-05
-8.47918e-06
6.90594e-05
-1.02046e-05
6.6458e-05
-1.215e-05
6.33048e-05
-1.43074e-05
5.95225e-05
-1.66462e-05
5.50448e-05
-1.91039e-05
4.98328e-05
-2.15759e-05
4.38972e-05
-2.39066e-05
3.73244e-05
-2.58859e-05
3.02989e-05
-2.72562e-05
2.31045e-05
-2.77368e-05
1.60902e-05
-2.70587e-05
9.62694e-06
-2.49839e-05
4.11047e-06
-2.12947e-05
-1.57712e-05
-1.42115e-05
4.01897e-05
-3.0402e-05
1.24181e-05
-4.25159e-05
-5.83742e-05
-3.60679e-05
-0.00017644
8.51116e-06
-0.000327963
5.17646e-05
-0.000339678
5.14628e-05
-0.000206807
3.14155e-05
-0.00010388
9.79648e-06
-4.26281e-05
-5.92702e-06
-1.01429e-05
-1.47807e-05
6.62052e-06
-1.80484e-05
1.51907e-05
-1.75846e-05
1.99199e-05
-1.47013e-05
2.2753e-05
-1.02656e-05
2.45086e-05
-4.85657e-06
2.55413e-05
1.12312e-06
2.60205e-05
7.36226e-06
2.60492e-05
1.36288e-05
2.56901e-05
1.97809e-05
2.49644e-05
2.57267e-05
2.39163e-05
3.13984e-05
2.26277e-05
3.67421e-05
2.1188e-05
4.17203e-05
1.96669e-05
4.63122e-05
1.81149e-05
5.05118e-05
1.65706e-05
5.43238e-05
1.50633e-05
5.77613e-05
1.36153e-05
6.08432e-05
1.22421e-05
6.3592e-05
1.09543e-05
6.6032e-05
9.75799e-06
6.81885e-05
8.65542e-06
7.00867e-05
7.6461e-06
7.17507e-05
6.72718e-06
7.32034e-05
5.89411e-06
7.44659e-05
5.14103e-06
7.55573e-05
4.46121e-06
7.64947e-05
3.84729e-06
7.7293e-05
3.29148e-06
7.79649e-05
2.78574e-06
7.85206e-05
2.32181e-06
7.89683e-05
1.89126e-06
7.93136e-05
1.48544e-06
7.95597e-05
1.09543e-06
7.97072e-05
7.11921e-07
7.97539e-05
3.25061e-07
7.96944e-05
-7.57973e-08
7.95202e-05
-5.02272e-07
7.92188e-05
-9.66739e-07
7.8774e-05
-1.48263e-06
7.81645e-05
-2.06447e-06
7.73638e-05
-2.72784e-06
7.63395e-05
-3.48916e-06
7.50526e-05
-4.36515e-06
7.34577e-05
-5.37195e-06
7.15022e-05
-6.5237e-06
6.91279e-05
-7.83038e-06
6.62727e-05
-9.2948e-06
6.28737e-05
-1.09085e-05
5.88741e-05
-1.26466e-05
5.42315e-05
-1.44613e-05
4.89311e-05
-1.62755e-05
4.30015e-05
-1.7977e-05
3.65317e-05
-1.94161e-05
2.96841e-05
-2.04086e-05
2.26958e-05
-2.07485e-05
1.58629e-05
-2.02258e-05
9.5235e-06
-1.86445e-05
4.06759e-06
-1.58388e-05
-1.17036e-05
-7.37411e-06
4.75638e-05
-2.17157e-05
2.67597e-05
-4.32294e-05
-3.68605e-05
-4.85993e-05
-0.00017107
4.79105e-07
-0.000377042
4.70505e-05
-0.000386249
3.13509e-05
-0.000191107
-2.4535e-06
-7.0076e-05
-2.75979e-05
-1.74836e-05
-4.09227e-05
3.18184e-06
-4.56521e-05
1.135e-05
-4.51357e-05
1.46743e-05
-4.15222e-05
1.63064e-05
-3.60553e-05
1.72861e-05
-2.94682e-05
1.79215e-05
-2.22199e-05
1.8293e-05
-1.46205e-05
1.84212e-05
-6.89078e-06
1.83194e-05
7.99304e-07
1.80001e-05
8.27995e-06
1.74838e-05
1.54446e-05
1.67516e-05
2.22484e-05
1.58239e-05
2.8643e-05
1.47934e-05
3.4594e-05
1.37159e-05
4.00838e-05
1.2625e-05
4.51095e-05
1.15449e-05
4.96792e-05
1.04937e-05
5.3809e-05
9.48544e-06
5.75209e-05
8.53017e-06
6.08407e-05
7.63459e-06
6.37961e-05
6.80261e-06
6.64158e-05
6.03572e-06
6.87284e-05
5.3335e-06
7.07616e-05
4.69399e-06
7.25416e-05
4.11403e-06
7.4093e-05
3.58963e-06
7.54381e-05
3.11614e-06
7.65969e-05
2.6885e-06
7.7587e-05
2.30135e-06
7.84236e-05
1.94916e-06
7.91192e-05
1.62622e-06
7.96838e-05
1.32673e-06
8.01245e-05
1.04476e-06
8.04457e-05
7.74172e-07
8.0649e-05
5.08614e-07
8.07327e-05
2.41349e-07
8.06918e-05
-3.48267e-08
8.05174e-05
-3.27897e-07
8.01969e-05
-6.46285e-07
7.97134e-05
-9.9907e-07
7.90449e-05
-1.39596e-06
7.81643e-05
-1.8473e-06
7.70391e-05
-2.36391e-06
7.56306e-05
-2.95671e-06
7.38948e-05
-3.63609e-06
7.17821e-05
-4.41101e-06
6.92392e-05
-5.28755e-06
6.62114e-05
-6.26699e-06
6.26461e-05
-7.3432e-06
5.84988e-05
-8.49936e-06
5.37416e-05
-9.70404e-06
4.83731e-05
-1.0907e-05
4.24314e-05
-1.20354e-05
3.60068e-05
-1.29914e-05
2.92511e-05
-1.3653e-05
2.23808e-05
-1.38782e-05
1.56698e-05
-1.35148e-05
9.43686e-06
-1.24116e-05
4.04227e-06
-1.04442e-05
-7.66139e-06
1.02104e-05
3.73534e-05
7.79962e-06
2.91704e-05
-1.93247e-05
-9.73621e-06
-6.14923e-05
-0.000128903
-4.78984e-06
-0.000433744
4.89163e-05
-0.000439956
-4.21831e-06
-0.000137973
-4.87227e-05
-2.55716e-05
-6.7907e-05
1.70065e-06
-7.35441e-05
8.81896e-06
-7.18221e-05
9.62796e-06
-6.66982e-05
9.55039e-06
-5.98329e-05
9.44109e-06
-5.20005e-05
9.45369e-06
-4.36055e-05
9.52656e-06
-3.48959e-05
9.58339e-06
-2.60509e-05
9.57617e-06
-1.72143e-05
9.48284e-06
-8.50959e-06
9.29537e-06
-4.05916e-08
9.0148e-06
8.07175e-06
8.63929e-06
1.57311e-05
8.16455e-06
2.29043e-05
7.62024e-06
2.95652e-05
7.05498e-06
3.57028e-05
6.48742e-06
4.13194e-05
5.92828e-06
4.64273e-05
5.38583e-06
5.10462e-05
4.86653e-06
5.52012e-05
4.37514e-06
5.89209e-05
3.91485e-06
6.2236e-05
3.48751e-06
6.5178e-05
3.09379e-06
6.7778e-05
2.73343e-06
7.00667e-05
2.40537e-06
7.20727e-05
2.10798e-06
7.38231e-05
1.83918e-06
7.53427e-05
1.59659e-06
7.66536e-05
1.37759e-06
7.77755e-05
1.17944e-06
7.87254e-05
9.99305e-07
7.95173e-05
8.3427e-07
8.01627e-05
6.81373e-07
8.06698e-05
5.37588e-07
8.10442e-05
3.99809e-07
8.1288e-05
2.64823e-07
8.14001e-05
1.29281e-07
8.1376e-05
-1.07687e-08
8.12068e-05
-1.58711e-07
8.088e-05
-3.19453e-07
8.03782e-05
-4.97318e-07
7.96795e-05
-6.97197e-07
7.87564e-05
-9.24276e-07
7.75765e-05
-1.18397e-06
7.61015e-05
-1.48173e-06
7.42882e-05
-1.8228e-06
7.20889e-05
-2.21167e-06
6.94528e-05
-2.65148e-06
6.63289e-05
-3.14305e-06
6.26693e-05
-3.68359e-06
5.84351e-05
-4.26515e-06
5.36037e-05
-4.87267e-06
4.81785e-05
-5.48179e-06
4.21999e-05
-6.05678e-06
3.57574e-05
-6.54882e-06
2.89997e-05
-6.89526e-06
2.21418e-05
-7.02031e-06
1.54651e-05
-6.83816e-06
9.31183e-06
-6.25825e-06
4.0586e-06
-5.191e-06
-3.6028e-06
3.73534e-05
6.65238e-05
5.67876e-05
-7.21153e-05
-5.85928e-06
5.41851e-05
-8.37876e-05
-0.000109359
-0.000107658
-9.88395e-05
-8.92116e-05
-7.96612e-05
-7.02201e-05
-6.07664e-05
-5.12399e-05
-4.16565e-05
-3.20803e-05
-2.25975e-05
-1.33021e-05
-4.28736e-06
4.35192e-06
1.25165e-05
2.01367e-05
2.71917e-05
3.36791e-05
3.96073e-05
4.49932e-05
4.98597e-05
5.42348e-05
5.81496e-05
6.16371e-05
6.47309e-05
6.74643e-05
6.98697e-05
7.19777e-05
7.38168e-05
7.54134e-05
7.6791e-05
7.79704e-05
7.89697e-05
7.9804e-05
8.04853e-05
8.10229e-05
8.14227e-05
8.16875e-05
8.18168e-05
8.1806e-05
8.16473e-05
8.13279e-05
8.08306e-05
8.01334e-05
7.92091e-05
7.80251e-05
7.65434e-05
7.47206e-05
7.2509e-05
6.98575e-05
6.67144e-05
6.30309e-05
5.87657e-05
5.38931e-05
4.84113e-05
4.23545e-05
3.58057e-05
2.89105e-05
2.18902e-05
1.5052e-05
8.7938e-06
3.6028e-06
)
;

boundaryField
{
    walls
    {
        type            calculated;
        value           uniform 0;
    }
    top
    {
        type            calculated;
        value           uniform 0;
    }
    bottom
    {
        type            calculated;
        value           uniform 0;
    }
    frontAndBack
    {
        type            empty;
    }
    inlet
    {
        type            calculated;
        value           uniform -0.0005;
    }
    outlet
    {
        type            calculated;
        value           nonuniform List<scalar> 2(0.000488906 0.000511094);
    }
}


// ************************************************************************* //
