/*--------------------------------*- C++ -*----------------------------------*\
  =========                 |
  \\      /  F ield         | OpenFOAM: The Open Source CFD Toolbox
   \\    /   O peration     | Website:  https://openfoam.org
    \\  /    A nd           | Version:  13
     \\/     M anipulation  |
\*---------------------------------------------------------------------------*/
FoamFile
{
    format      ascii;
    class       volVectorField;
    location    "0";
    object      U;
}
// * * * * * * * * * * * * * * * * * * * * * * * * * * * * * * * * * * * * * //

dimensions      [0 1 -1 0 0 0 0];

internalField   nonuniform List<vector> 
1120
(
(0.00014972 0 -0.000173258)
(0.000520142 0 -0.000395736)
(0.00140992 0 -0.000681137)
(0.00281311 0 -0.00098988)
(0.00470553 0 -0.00125122)
(0.00694942 0 -0.00139737)
(0.00931661 0 -0.00139519)
(0.0115622 0 -0.00125554)
(0.0134883 0 -0.0010182)
(0.0149732 0 -0.000731582)
(0.0159718 0 -0.000438839)
(0.0165001 0 -0.000171486)
(0.0166151 0 5.31841e-05)
(0.0163994 0 0.000231118)
(0.0159202 0 0.000364868)
(0.0152492 0 0.000458449)
(0.0144501 0 0.000516617)
(0.0135771 0 0.00054497)
(0.0126747 0 0.000549482)
(0.0117778 0 0.000535946)
(0.0109122 0 0.000509593)
(0.0100955 0 0.000474885)
(0.00933906 0 0.000435442)
(0.00864857 0 0.000394062)
(0.00802583 0 0.0003528)
(0.00746974 0 0.000313081)
(0.00697718 0 0.000275821)
(0.00654384 0 0.000241541)
(0.00616471 0 0.000210474)
(0.00583455 0 0.000182644)
(0.00554817 0 0.000157938)
(0.00530058 0 0.000136155)
(0.00508719 0 0.000117045)
(0.00490379 0 0.000100333)
(0.00474664 0 8.5742e-05)
(0.00461243 0 7.29989e-05)
(0.0044983 0 6.18431e-05)
(0.0044018 0 5.20288e-05)
(0.00432088 0 4.33241e-05)
(0.00425386 0 3.55096e-05)
(0.00419941 0 2.8374e-05)
(0.00415654 0 2.17103e-05)
(0.00412463 0 1.53088e-05)
(0.00410339 0 8.95333e-06)
(0.00409286 0 2.42534e-06)
(0.00409356 0 -4.50566e-06)
(0.00410637 0 -1.2145e-05)
(0.00413266 0 -2.08599e-05)
(0.00417453 0 -3.1088e-05)
(0.00423485 0 -4.33907e-05)
(0.00431756 0 -5.84975e-05)
(0.00442793 0 -7.73672e-05)
(0.00457302 0 -0.000101275)
(0.00476234 0 -0.000131936)
(0.0050086 0 -0.000171675)
(0.00532893 0 -0.000223671)
(0.00574715 0 -0.000292558)
(0.00629877 0 -0.000387064)
(0.00703539 0 -0.000528647)
(0.00800444 0 -0.000765962)
(0.00924701 0 -0.00119564)
(0.01141 0 -0.00223644)
(0.0182261 0 -0.0067216)
(0.0321885 0 -0.0268602)
(0.028412 0 -0.0847265)
(-0.018272 0 -0.0884594)
(-0.0242445 0 -0.0280042)
(-0.00850946 0 -0.00725204)
(-0.00171488 0 -0.00225426)
(-0.000321429 0 -0.000822977)
(0.000293049 0 -0.000507484)
(0.000893112 0 -0.00106077)
(0.00214344 0 -0.0017852)
(0.00401855 0 -0.00256092)
(0.00649227 0 -0.00321617)
(0.00938886 0 -0.00358138)
(0.0124209 0 -0.00357477)
(0.0152908 0 -0.00322607)
(0.017767 0 -0.00263505)
(0.0197095 0 -0.00192029)
(0.0210647 0 -0.00118618)
(0.0218454 0 -0.000509045)
(0.0221073 0 6.62007e-05)
(0.0219398 0 0.000526726)
(0.0214251 0 0.000877881)
(0.0206487 0 0.00112789)
(0.0196891 0 0.00128802)
(0.0186147 0 0.00137192)
(0.0174831 0 0.00139416)
(0.0163408 0 0.00136901)
(0.0152234 0 0.0013095)
(0.0141565 0 0.00122691)
(0.0131574 0 0.00113052)
(0.0122366 0 0.00102763)
(0.0113988 0 0.000923738)
(0.0106447 0 0.000822732)
(0.009972 0 0.000727206)
(0.00937629 0 0.000638722)
(0.00885207 0 0.000558062)
(0.00839316 0 0.000485445)
(0.00799322 0 0.000420696)
(0.007646 0 0.000363391)
(0.00734558 0 0.000312947)
(0.00708649 0 0.000268707)
(0.00686378 0 0.000229983)
(0.00667301 0 0.000196088)
(0.00651034 0 0.000166362)
(0.00637241 0 0.000140172)
(0.00625642 0 0.00011692)
(0.00616001 0 9.60352e-05)
(0.00608135 0 7.69677e-05)
(0.00601903 0 5.91762e-05)
(0.00597214 0 4.2114e-05)
(0.00594023 0 2.5216e-05)
(0.00592331 0 7.89169e-06)
(0.00592201 0 -1.04783e-05)
(0.00593752 0 -3.06516e-05)
(0.0059716 0 -5.35722e-05)
(0.006027 0 -8.03849e-05)
(0.00610751 0 -0.000112541)
(0.00621828 0 -0.000151925)
(0.00636622 0 -0.000201027)
(0.00656063 0 -0.000263192)
(0.00681403 0 -0.000343005)
(0.00714346 0 -0.000446902)
(0.00757254 0 -0.000584205)
(0.00813529 0 -0.000769156)
(0.00888327 0 -0.00102583)
(0.00989581 0 -0.00140054)
(0.0112884 0 -0.00198621)
(0.0132561 0 -0.00296187)
(0.0163326 0 -0.00476087)
(0.0216346 0 -0.00906354)
(0.0271311 0 -0.0218503)
(0.0193218 0 -0.0518686)
(-0.00713753 0 -0.0545256)
(-0.0164873 0 -0.0230677)
(-0.00978003 0 -0.00957569)
(-0.00405791 0 -0.00466897)
(-0.00139502 0 -0.00231)
(0.000371551 0 -0.00115474)
(0.00111549 0 -0.00217958)
(0.00259596 0 -0.00353309)
(0.00479168 0 -0.00498973)
(0.00768544 0 -0.00621733)
(0.0110609 0 -0.00688918)
(0.0145601 0 -0.00685891)
(0.0178344 0 -0.0061969)
(0.0206363 0 -0.00509544)
(0.0228327 0 -0.0037706)
(0.0243829 0 -0.00240656)
(0.0253108 0 -0.00113611)
(0.0256793 0 -3.95442e-05)
(0.025569 0 0.000853127)
(0.0250738 0 0.00154436)
(0.0242827 0 0.00204669)
(0.0232787 0 0.00237948)
(0.0221356 0 0.00256684)
(0.0209157 0 0.00263499)
(0.01967 0 0.00260991)
(0.0184385 0 0.00251564)
(0.0172509 0 0.00237333)
(0.0161282 0 0.00220073)
(0.0150839 0 0.00201205)
(0.0141255 0 0.00181823)
(0.0132557 0 0.00162728)
(0.0124736 0 0.00144471)
(0.0117761 0 0.00127404)
(0.0111581 0 0.00111723)
(0.0106137 0 0.000975087)
(0.0101365 0 0.000847584)
(0.00971993 0 0.00073414)
(0.00935776 0 0.000633815)
(0.00904397 0 0.000545466)
(0.00877309 0 0.000467854)
(0.00854015 0 0.00039971)
(0.00834073 0 0.000339789)
(0.008171 0 0.000286884)
(0.00802766 0 0.000239841)
(0.00790798 0 0.000197553)
(0.00780973 0 0.000158942)
(0.00773123 0 0.000122949)
(0.00767132 0 8.84993e-05)
(0.00762936 0 5.44807e-05)
(0.0076053 0 1.97185e-05)
(0.00759967 0 -1.70311e-05)
(0.00761381 0 -5.7221e-05)
(0.00764956 0 -0.00010265)
(0.00770982 0 -0.000155524)
(0.00779864 0 -0.000218626)
(0.00792146 0 -0.000295545)
(0.00808555 0 -0.000391008)
(0.00830053 0 -0.000511358)
(0.00857918 0 -0.000665314)
(0.00893851 0 -0.000865199)
(0.00940143 0 -0.00112906)
(0.00999931 0 -0.00148454)
(0.0107756 0 -0.00197663)
(0.0117897 0 -0.00268335)
(0.0131171 0 -0.00374484)
(0.0148491 0 -0.00541257)
(0.0170862 0 -0.00816825)
(0.0196585 0 -0.0130872)
(0.020559 0 -0.0222507)
(0.0141157 0 -0.0354252)
(-0.000333811 0 -0.037036)
(-0.00803039 0 -0.0235405)
(-0.00649829 0 -0.0138928)
(-0.00344036 0 -0.008378)
(-0.00133037 0 -0.0049535)
(0.000381572 0 -0.00188958)
(0.00115962 0 -0.00342127)
(0.00273445 0 -0.00547124)
(0.00513682 0 -0.00770323)
(0.00837095 0 -0.00958214)
(0.012159 0 -0.0105712)
(0.0160319 0 -0.0104583)
(0.0195721 0 -0.00939622)
(0.0225267 0 -0.00770673)
(0.0247914 0 -0.00571936)
(0.0263622 0 -0.00369739)
(0.0272924 0 -0.00182111)
(0.0276637 0 -0.000195301)
(0.0275572 0 0.00113906)
(0.0270699 0 0.00218081)
(0.0262906 0 0.00294639)
(0.0253007 0 0.00346327)
(0.0241715 0 0.00376596)
(0.0229631 0 0.00389195)
(0.0217243 0 0.00387837)
(0.0204932 0 0.00375975)
(0.019299 0 0.00356659)
(0.0181624 0 0.00332474)
(0.0170977 0 0.0030552)
(0.0161133 0 0.00277439)
(0.0152132 0 0.00249456)
(0.0143978 0 0.00222442)
(0.0136652 0 0.00196974)
(0.0130116 0 0.00173397)
(0.0124319 0 0.00151879)
(0.0119205 0 0.00132459)
(0.0114715 0 0.00115084)
(0.0110788 0 0.00099641)
(0.0107368 0 0.000859798)
(0.0104401 0 0.000739299)
(0.0101838 0 0.000633123)
(0.00996329 0 0.000539469)
(0.00977478 0 0.000456571)
(0.00961483 0 0.000382719)
(0.00948055 0 0.000316252)
(0.00936957 0 0.000255553)
(0.00928005 0 0.000199017)
(0.00921069 0 0.00014502)
(0.0091607 0 9.18719e-05)
(0.00912988 0 3.77843e-05)
(0.00911859 0 -1.91546e-05)
(0.00912809 0 -8.11096e-05)
(0.00916 0 -0.000150709)
(0.00921701 0 -0.000231189)
(0.00930278 0 -0.000326596)
(0.00942224 0 -0.00044209)
(0.00958182 0 -0.000584379)
(0.00978984 0 -0.000762347)
(0.0100569 0 -0.000988009)
(0.0103965 0 -0.00127799)
(0.0108253 0 -0.00165594)
(0.0113641 0 -0.00215652)
(0.0120368 0 -0.00283228)
(0.0128673 0 -0.00376526)
(0.013869 0 -0.00508534)
(0.0150204 0 -0.00699614)
(0.0162058 0 -0.00981376)
(0.0170161 0 -0.0140085)
(0.0162026 0 -0.0199868)
(0.0114336 0 -0.0264819)
(0.00307881 0 -0.0275351)
(-0.00258138 0 -0.0212665)
(-0.00309728 0 -0.0150695)
(-0.00196283 0 -0.010349)
(-0.000837132 0 -0.00674835)
(0.000318082 0 -0.00258827)
(0.00102565 0 -0.00465232)
(0.00256346 0 -0.00748774)
(0.00508002 0 -0.0106346)
(0.00862161 0 -0.0132878)
(0.0128161 0 -0.0146054)
(0.0170188 0 -0.0143112)
(0.0207196 0 -0.0127151)
(0.0236754 0 -0.0103266)
(0.0258365 0 -0.00761124)
(0.0272588 0 -0.00490941)
(0.0280424 0 -0.00243614)
(0.0282985 0 -0.000305314)
(0.0281154 0 0.00144372)
(0.0275946 0 0.0028103)
(0.0268225 0 0.00381671)
(0.0258738 0 0.00450042)
(0.0248115 0 0.00490734)
(0.0236868 0 0.00508622)
(0.0225399 0 0.00508458)
(0.0214022 0 0.0049462)
(0.0202974 0 0.00470961)
(0.0192426 0 0.00440751)
(0.0182498 0 0.0040666)
(0.0173266 0 0.00370797)
(0.0164769 0 0.00334759)
(0.0157019 0 0.00299705)
(0.0150006 0 0.00266424)
(0.0143704 0 0.00235411)
(0.0138075 0 0.00206933)
(0.0133075 0 0.00181083)
(0.0128656 0 0.0015783)
(0.0124768 0 0.00137059)
(0.0121361 0 0.00118601)
(0.0118389 0 0.00102251)
(0.0115807 0 0.000877897)
(0.0113576 0 0.000749921)
(0.0111657 0 0.000636328)
(0.0110021 0 0.000534912)
(0.0108639 0 0.000443514)
(0.0107488 0 0.000360012)
(0.0106551 0 0.000282294)
(0.0105814 0 0.000208217)
(0.0105267 0 0.000135554)
(0.0104909 0 6.19371e-05)
(0.0104739 0 -1.51863e-05)
(0.0104768 0 -9.86284e-05)
(0.0105008 0 -0.000191728)
(0.010548 0 -0.000298589)
(0.0106214 0 -0.000424282)
(0.0107246 0 -0.000575168)
(0.0108626 0 -0.000759367)
(0.0110413 0 -0.000987402)
(0.0112678 0 -0.00127313)
(0.0115503 0 -0.00163509)
(0.0118977 0 -0.00209852)
(0.0123181 0 -0.0026983)
(0.0128164 0 -0.00348333)
(0.0133878 0 -0.00452243)
(0.0140044 0 -0.00591114)
(0.0145917 0 -0.00777612)
(0.0149833 0 -0.0102692)
(0.0148305 0 -0.0135226)
(0.0134454 0 -0.0174409)
(0.00991329 0 -0.0210374)
(0.0047126 0 -0.0217206)
(0.000711883 0 -0.0186278)
(-0.00066539 0 -0.0146695)
(-0.000681611 0 -0.0109638)
(-0.000345541 0 -0.00756836)
(0.000179094 0 -0.00313687)
(0.000712153 0 -0.00574991)
(0.00208133 0 -0.00948801)
(0.00462607 0 -0.0137487)
(0.0084691 0 -0.0173587)
(0.0131028 0 -0.0190102)
(0.017611 0 -0.0183753)
(0.0213686 0 -0.0160503)
(0.024173 0 -0.0128147)
(0.0260631 0 -0.00929355)
(0.0271783 0 -0.00589688)
(0.02768 0 -0.00285505)
(0.0277144 0 -0.000269748)
(0.0273793 0 0.0018356)
(0.0267863 0 0.00346793)
(0.0260155 0 0.00466167)
(0.0251298 0 0.00546848)
(0.024178 0 0.00594753)
(0.0231961 0 0.00615878)
(0.0222112 0 0.0061589)
(0.0212433 0 0.00599901)
(0.0203072 0 0.00572362)
(0.019414 0 0.00537025)
(0.0185713 0 0.00496963)
(0.0177842 0 0.0045461)
(0.0170556 0 0.00411833)
(0.0163866 0 0.00370001)
(0.0157769 0 0.00330072)
(0.0152248 0 0.00292665)
(0.0147279 0 0.00258132)
(0.0142832 0 0.00226624)
(0.0138873 0 0.00198141)
(0.0135365 0 0.00172578)
(0.0132271 0 0.00149759)
(0.0129553 0 0.00129463)
(0.0127179 0 0.00111444)
(0.0125113 0 0.00095444)
(0.0123328 0 0.000812011)
(0.0121796 0 0.00068456)
(0.0120493 0 0.000569521)
(0.01194 0 0.000464358)
(0.01185 0 0.000366534)
(0.011778 0 0.000273468)
(0.0117233 0 0.00018248)
(0.0116853 0 9.07206e-05)
(0.0116638 0 -4.91228e-06)
(0.0116596 0 -0.00010776)
(0.0116733 0 -0.000221702)
(0.0117064 0 -0.000351475)
(0.0117607 0 -0.000502837)
(0.0118386 0 -0.00068288)
(0.0119428 0 -0.000900458)
(0.0120767 0 -0.00116675)
(0.0122435 0 -0.00149602)
(0.0124462 0 -0.00190659)
(0.0126861 0 -0.0024222)
(0.0129613 0 -0.00307362)
(0.0132632 0 -0.00390056)
(0.0135699 0 -0.00495323)
(0.0138364 0 -0.00629191)
(0.013978 0 -0.00798081)
(0.0138471 0 -0.0100685)
(0.0132028 0 -0.0125382)
(0.01169 0 -0.0151837)
(0.00898606 0 -0.0173527)
(0.00547342 0 -0.0178356)
(0.00250402 0 -0.0162185)
(0.000873448 0 -0.0136617)
(0.000199641 0 -0.0107747)
(1.46332e-05 0 -0.00768306)
(-3.92925e-05 0 -0.0034128)
(0.000213156 0 -0.00658212)
(0.00127877 0 -0.0113668)
(0.00375927 0 -0.0170038)
(0.00791006 0 -0.0218293)
(0.0130455 0 -0.0238043)
(0.0178355 0 -0.0225842)
(0.0215249 0 -0.0192673)
(0.0240072 0 -0.0150077)
(0.025455 0 -0.0106058)
(0.0261164 0 -0.00651995)
(0.0262242 0 -0.00296641)
(0.025954 0 -7.54644e-06)
(0.0254241 0 0.00236233)
(0.0247494 0 0.0041688)
(0.023997 0 0.00546871)
(0.0232112 0 0.00633348)
(0.0224195 0 0.00683708)
(0.0216384 0 0.0070497)
(0.0208777 0 0.00703485)
(0.020144 0 0.0068482)
(0.0194416 0 0.00653741)
(0.0187741 0 0.00614235)
(0.018144 0 0.0056956)
(0.0175532 0 0.00522306)
(0.0170031 0 0.00474475)
(0.016494 0 0.00427552)
(0.016026 0 0.00382593)
(0.0155983 0 0.00340297)
(0.0152099 0 0.0030108)
(0.014859 0 0.00265138)
(0.0145437 0 0.00232503)
(0.0142619 0 0.00203086)
(0.0140113 0 0.00176718)
(0.0137895 0 0.00153172)
(0.0135941 0 0.00132191)
(0.013423 0 0.001135)
(0.013274 0 0.000968134)
(0.0131451 0 0.000818473)
(0.0130347 0 0.000683169)
(0.0129412 0 0.000559391)
(0.0128632 0 0.000444294)
(0.0127998 0 0.000334977)
(0.0127502 0 0.00022843)
(0.0127138 0 0.000121454)
(0.0126904 0 1.05782e-05)
(0.0126798 0 -0.00010794)
(0.0126827 0 -0.000238344)
(0.0126995 0 -0.000385715)
(0.012731 0 -0.000556133)
(0.0127781 0 -0.000756945)
(0.0128416 0 -0.000997111)
(0.0129222 0 -0.00128763)
(0.0130196 0 -0.00164203)
(0.0131324 0 -0.00207701)
(0.0132565 0 -0.00261305)
(0.013383 0 -0.00327496)
(0.0134956 0 -0.00409204)
(0.0135659 0 -0.00509712)
(0.0135465 0 -0.0063229)
(0.0133623 0 -0.00779298)
(0.0129027 0 -0.00950281)
(0.0120169 0 -0.0113837)
(0.0105322 0 -0.0132381)
(0.00835868 0 -0.014651)
(0.00576258 0 -0.0150235)
(0.00341468 0 -0.0141271)
(0.0017642 0 -0.0123891)
(0.000743137 0 -0.0101107)
(0.000245115 0 -0.00735061)
(-0.000347665 0 -0.00328756)
(-0.000483846 0 -0.00700823)
(0.000145941 0 -0.013004)
(0.00245687 0 -0.0203517)
(0.00692164 0 -0.0267534)
(0.0126516 0 -0.0290156)
(0.0176873 0 -0.0268473)
(0.0211448 0 -0.0222011)
(0.0231056 0 -0.0167253)
(0.023934 0 -0.0113898)
(0.0240115 0 -0.00665782)
(0.0236462 0 -0.00268817)
(0.0230284 0 0.000525901)
(0.0223132 0 0.00303103)
(0.0215933 0 0.00489123)
(0.0209126 0 0.00619694)
(0.0202873 0 0.00704327)
(0.0197177 0 0.0075182)
(0.0191971 0 0.00769908)
(0.0187174 0 0.0076524)
(0.0182713 0 0.00743463)
(0.0178533 0 0.00709329)
(0.0174598 0 0.00666786)
(0.0170885 0 0.0061906)
(0.0167382 0 0.00568726)
(0.0164086 0 0.00517785)
(0.0160996 0 0.00467739)
(0.0158112 0 0.00419668)
(0.0155435 0 0.00374304)
(0.0152965 0 0.00332093)
(0.01507 0 0.00293262)
(0.0148635 0 0.00257867)
(0.0146762 0 0.0022584)
(0.0145075 0 0.00197023)
(0.0143563 0 0.00171197)
(0.0142216 0 0.00148106)
(0.0141023 0 0.0012747)
(0.0139973 0 0.00108998)
(0.0139054 0 0.000923935)
(0.0138258 0 0.000773578)
(0.0137574 0 0.000635922)
(0.0136995 0 0.00050795)
(0.0136513 0 0.000386582)
(0.0136121 0 0.00026862)
(0.0135814 0 0.00015068)
(0.013559 0 2.9108e-05)
(0.0135442 0 -0.000100067)
(0.0135372 0 -0.000241269)
(0.0135376 0 -0.000399643)
(0.0135453 0 -0.00058126)
(0.0135597 0 -0.000793313)
(0.0135801 0 -0.00104436)
(0.0136047 0 -0.00134462)
(0.0136308 0 -0.0017062)
(0.0136535 0 -0.00214342)
(0.0136651 0 -0.00267287)
(0.0136532 0 -0.00331328)
(0.0135984 0 -0.00408465)
(0.0134717 0 -0.00500619)
(0.0132308 0 -0.00609194)
(0.0128165 0 -0.00734236)
(0.0121523 0 -0.00873)
(0.0111497 0 -0.0101771)
(0.00973075 0 -0.0115252)
(0.00789002 0 -0.0125097)
(0.00580577 0 -0.0128081)
(0.00383317 0 -0.0122704)
(0.00223601 0 -0.0110254)
(0.00104962 0 -0.00918746)
(0.000379378 0 -0.00675304)
(-0.000755483 0 -0.00261716)
(-0.00139216 0 -0.00691592)
(-0.00131562 0 -0.0142705)
(0.000704032 0 -0.0237153)
(0.0054814 0 -0.0322049)
(0.0119375 0 -0.0346841)
(0.0171579 0 -0.0310367)
(0.0201643 0 -0.0246456)
(0.0213698 0 -0.0177682)
(0.0214009 0 -0.0114955)
(0.0207943 0 -0.00622116)
(0.0199261 0 -0.00198438)
(0.0189847 0 0.00131925)
(0.0181544 0 0.0037942)
(0.0174778 0 0.00556793)
(0.0169585 0 0.00677322)
(0.0165745 0 0.0075273)
(0.0162955 0 0.00792669)
(0.0160924 0 0.00804981)
(0.0159407 0 0.0079608)
(0.0158221 0 0.0077126)
(0.0157233 0 0.00734933)
(0.0156352 0 0.00690766)
(0.0155519 0 0.00641765)
(0.0154698 0 0.00590344)
(0.0153872 0 0.00538393)
(0.0153036 0 0.00487345)
(0.0152194 0 0.00438241)
(0.0151352 0 0.00391798)
(0.0150522 0 0.00348463)
(0.0149712 0 0.00308473)
(0.0148933 0 0.00271903)
(0.0148191 0 0.00238701)
(0.0147494 0 0.00208727)
(0.0146845 0 0.00181778)
(0.0146246 0 0.00157609)
(0.0145699 0 0.00135948)
(0.0145203 0 0.0011651)
(0.0144757 0 0.000990012)
(0.0144358 0 0.000831234)
(0.0144005 0 0.000685759)
(0.0143693 0 0.000550542)
(0.014342 0 0.00042247)
(0.0143181 0 0.00029831)
(0.0142973 0 0.000174653)
(0.014279 0 4.78334e-05)
(0.0142627 0 -8.61485e-05)
(0.0142477 0 -0.000231688)
(0.0142333 0 -0.000393776)
(0.0142182 0 -0.000578199)
(0.014201 0 -0.000791684)
(0.0141794 0 -0.00104205)
(0.01415 0 -0.00133834)
(0.0141082 0 -0.00169094)
(0.014047 0 -0.00211158)
(0.0139567 0 -0.00261309)
(0.0138234 0 -0.00320888)
(0.0136278 0 -0.00391166)
(0.0133435 0 -0.00473114)
(0.0129357 0 -0.00566999)
(0.0123606 0 -0.00671731)
(0.0115679 0 -0.00783887)
(0.0105083 0 -0.0089643)
(0.00915094 0 -0.00997377)
(0.00751794 0 -0.0106944)
(0.00572916 0 -0.0109344)
(0.00398727 0 -0.0105815)
(0.00245692 0 -0.00964408)
(0.00120449 0 -0.0081364)
(0.000449936 0 -0.00601569)
(-0.00123758 0 -0.00126944)
(-0.00248218 0 -0.00616033)
(-0.00306885 0 -0.0151294)
(-0.00148601 0 -0.0269629)
(0.00358039 0 -0.0382647)
(0.0109568 0 -0.040868)
(0.0162576 0 -0.0349717)
(0.0185151 0 -0.0263433)
(0.018695 0 -0.0179194)
(0.0177647 0 -0.0107933)
(0.0164272 0 -0.00516971)
(0.0150958 0 -0.000886454)
(0.0139463 0 0.00228754)
(0.0131436 0 0.00454074)
(0.0126457 0 0.00608736)
(0.0123996 0 0.0070999)
(0.0123421 0 0.00770645)
(0.0124156 0 0.00800097)
(0.0125734 0 0.00805461)
(0.0127806 0 0.00792336)
(0.0130117 0 0.00765271)
(0.0132488 0 0.00728085)
(0.0134797 0 0.00683995)
(0.0136963 0 0.00635664)
(0.0138936 0 0.00585249)
(0.0140691 0 0.00534449)
(0.0142221 0 0.00484563)
(0.0143533 0 0.00436543)
(0.014464 0 0.00391055)
(0.0145563 0 0.00348521)
(0.0146322 0 0.00309174)
(0.0146938 0 0.00273092)
(0.0147434 0 0.00240241)
(0.0147828 0 0.00210499)
(0.0148138 0 0.00183684)
(0.0148377 0 0.00159571)
(0.0148559 0 0.00137908)
(0.0148693 0 0.00118425)
(0.0148788 0 0.00100845)
(0.0148849 0 0.000848814)
(0.0148881 0 0.000702462)
(0.0148886 0 0.000566456)
(0.0148865 0 0.000437787)
(0.0148818 0 0.000313338)
(0.0148741 0 0.000189828)
(0.0148631 0 6.37413e-05)
(0.0148478 0 -6.87593e-05)
(0.0148274 0 -0.000211852)
(0.0148005 0 -0.000370187)
(0.0147654 0 -0.000549062)
(0.0147196 0 -0.000754518)
(0.0146598 0 -0.000993418)
(0.0145815 0 -0.00127349)
(0.0144787 0 -0.00160333)
(0.0143435 0 -0.00199218)
(0.0141652 0 -0.00244966)
(0.0139301 0 -0.00298493)
(0.0136202 0 -0.00360547)
(0.013213 0 -0.00431498)
(0.0126812 0 -0.00511006)
(0.0119935 0 -0.00597549)
(0.0111182 0 -0.006878)
(0.0100293 0 -0.0077592)
(0.00871895 0 -0.00853015)
(0.00721575 0 -0.00907349)
(0.00560303 0 -0.009264)
(0.00400671 0 -0.00901185)
(0.00253785 0 -0.00827882)
(0.00127029 0 -0.00703271)
(0.000481958 0 -0.00521381)
(-0.00170713 0 0.000871837)
(-0.00359868 0 -0.00462578)
(-0.00498481 0 -0.0153974)
(-0.00399032 0 -0.0301255)
(0.00120449 0 -0.0449794)
(0.00982044 0 -0.0476615)
(0.0150272 0 -0.0384081)
(0.016127 0 -0.0269864)
(0.0149779 0 -0.0169623)
(0.0129683 0 -0.00920008)
(0.0109462 0 -0.00353285)
(0.00926647 0 0.000493352)
(0.00817181 0 0.00325508)
(0.00759828 0 0.00510066)
(0.00743176 0 0.0063128)
(0.00756344 0 0.0070773)
(0.00789861 0 0.00751267)
(0.00836339 0 0.00769687)
(0.0089028 0 0.00768607)
(0.00947752 0 0.00752376)
(0.0100598 0 0.00724538)
(0.0106306 0 0.00688203)
(0.0111766 0 0.00646077)
(0.0116887 0 0.00600431)
(0.0121613 0 0.00553112)
(0.0125916 0 0.00505579)
(0.0129788 0 0.00458957)
(0.0133241 0 0.00414077)
(0.0136294 0 0.0037152)
(0.0138975 0 0.00331667)
(0.0141316 0 0.00294728)
(0.014335 0 0.00260782)
(0.0145108 0 0.00229804)
(0.0146622 0 0.00201693)
(0.0147921 0 0.0017629)
(0.014903 0 0.00153397)
(0.0149972 0 0.00132788)
(0.0150767 0 0.0011422)
(0.0151432 0 0.00097441)
(0.0151981 0 0.000821895)
(0.0152426 0 0.000682005)
(0.0152773 0 0.000552035)
(0.0153029 0 0.000429212)
(0.0153197 0 0.000310667)
(0.0153274 0 0.000193385)
(0.0153258 0 7.41494e-05)
(0.015314 0 -5.05485e-05)
(0.0152907 0 -0.000184507)
(0.0152544 0 -0.000331888)
(0.0152027 0 -0.000497352)
(0.0151325 0 -0.000686119)
(0.0150398 0 -0.000903998)
(0.0149195 0 -0.00115737)
(0.0147647 0 -0.00145311)
(0.0145672 0 -0.00179833)
(0.0143161 0 -0.00220001)
(0.0139985 0 -0.00266419)
(0.0135985 0 -0.00319493)
(0.0130974 0 -0.00379245)
(0.0124742 0 -0.00445077)
(0.0117073 0 -0.00515431)
(0.0107771 0 -0.00587403)
(0.00967156 0 -0.00656353)
(0.00839365 0 -0.00715695)
(0.00697164 0 -0.0075716)
(0.00546668 0 -0.00771954)
(0.00396469 0 -0.00752717)
(0.00254727 0 -0.00694241)
(0.00128837 0 -0.00591684)
(0.000492781 0 -0.00438977)
(-0.00197577 0 0.00366579)
(-0.00443497 0 -0.00230298)
(-0.00672281 0 -0.014905)
(-0.00664325 0 -0.0330136)
(-0.00155342 0 -0.052502)
(0.00869553 0 -0.0552029)
(0.0135299 0 -0.0409827)
(0.012914 0 -0.0262044)
(0.0101239 0 -0.0147137)
(0.0070355 0 -0.00673892)
(0.00454938 0 -0.00148398)
(0.00288298 0 0.00188418)
(0.00211191 0 0.00397823)
(0.00195689 0 0.00529626)
(0.00223573 0 0.00613033)
(0.00280539 0 0.00663951)
(0.00355927 0 0.00691261)
(0.00442151 0 0.00700218)
(0.00533527 0 0.00694546)
(0.00626315 0 0.00677133)
(0.00717822 0 0.00650398)
(0.0080629 0 0.00616776)
(0.00890427 0 0.00578515)
(0.00969295 0 0.00537499)
(0.010423 0 0.00495245)
(0.0110917 0 0.00452951)
(0.0116986 0 0.00411536)
(0.012245 0 0.00371686)
(0.0127337 0 0.00333884)
(0.0131682 0 0.00298448)
(0.0135526 0 0.00265559)
(0.0138909 0 0.00235285)
(0.0141875 0 0.00207611)
(0.0144465 0 0.00182454)
(0.0146717 0 0.00159679)
(0.0148667 0 0.00139121)
(0.0150348 0 0.00120585)
(0.0151788 0 0.00103863)
(0.0153012 0 0.000887346)
(0.0154041 0 0.000749743)
(0.0154893 0 0.000623499)
(0.0155582 0 0.000506249)
(0.0156116 0 0.000395566)
(0.0156502 0 0.000288941)
(0.0156742 0 0.000183746)
(0.0156832 0 7.71849e-05)
(0.0156765 0 -3.37821e-05)
(0.0156526 0 -0.000152442)
(0.0156097 0 -0.000282355)
(0.0155452 0 -0.000427443)
(0.0154555 0 -0.000592029)
(0.0153362 0 -0.00078084)
(0.0151816 0 -0.000998961)
(0.0149847 0 -0.00125172)
(0.014737 0 -0.00154443)
(0.0144282 0 -0.00188205)
(0.0140463 0 -0.00226847)
(0.0135772 0 -0.00270563)
(0.0130059 0 -0.00319217)
(0.0123162 0 -0.00372158)
(0.0114932 0 -0.00428001)
(0.0105255 0 -0.00484376)
(0.00940879 0 -0.00537706)
(0.00815143 0 -0.00583117)
(0.00677971 0 -0.0061463)
(0.00534168 0 -0.00625786)
(0.00390193 0 -0.00610585)
(0.00252542 0 -0.0056391)
(0.00128398 0 -0.00480963)
(0.000492852 0 -0.00356624)
(-0.00178247 0 0.00671932)
(-0.00443834 0 0.000743966)
(-0.00765555 0 -0.0132855)
(-0.00909847 0 -0.0349696)
(-0.00443504 0 -0.0610151)
(0.00776107 0 -0.0635682)
(0.0117954 0 -0.0419232)
(0.00869971 0 -0.0234155)
(0.00403024 0 -0.0110268)
(0.000115141 0 -0.0035688)
(-0.00238203 0 0.000635732)
(-0.00349318 0 0.00291292)
(-0.00369719 0 0.00420694)
(-0.00331638 0 0.00498969)
(-0.00255335 0 0.00547553)
(-0.00154763 0 0.00576436)
(-0.000394039 0 0.0059064)
(0.000843908 0 0.00592954)
(0.00210049 0 0.0058532)
(0.00334889 0 0.00569066)
(0.00456217 0 0.00545488)
(0.00572646 0 0.00516453)
(0.00683012 0 0.00483888)
(0.00786376 0 0.00449334)
(0.0088215 0 0.00413971)
(0.00970079 0 0.00378713)
(0.0105016 0 0.00344261)
(0.0112259 0 0.00311139)
(0.011877 0 0.00279723)
(0.012459 0 0.00250257)
(0.0129767 0 0.00222886)
(0.0134352 0 0.00197664)
(0.0138396 0 0.0017458)
(0.0141947 0 0.00153569)
(0.0145053 0 0.00134525)
(0.0147759 0 0.00117313)
(0.0150104 0 0.00101778)
(0.0152125 0 0.000877515)
(0.0153854 0 0.000750534)
(0.0155318 0 0.000634988)
(0.0156541 0 0.000528982)
(0.0157541 0 0.000430576)
(0.0158332 0 0.00033778)
(0.0158922 0 0.000248543)
(0.0159316 0 0.000160718)
(0.0159512 0 7.20298e-05)
(0.0159503 0 -1.99861e-05)
(0.0159274 0 -0.000117998)
(0.0158805 0 -0.000224877)
(0.0158068 0 -0.000343739)
(0.0157025 0 -0.000477973)
(0.0155629 0 -0.000631231)
(0.0153822 0 -0.000807379)
(0.0151532 0 -0.00101038)
(0.0148675 0 -0.00124407)
(0.0145152 0 -0.00151189)
(0.0140853 0 -0.00181628)
(0.0135656 0 -0.00215808)
(0.0129434 0 -0.00253544)
(0.0122064 0 -0.00294264)
(0.0113439 0 -0.00336853)
(0.0103497 0 -0.00379493)
(0.00922413 0 -0.00419525)
(0.00797803 0 -0.00453398)
(0.00663612 0 -0.00476771)
(0.00523913 0 -0.00484839)
(0.00384042 0 -0.00472825)
(0.00249531 0 -0.00436339)
(0.00127231 0 -0.00371473)
(0.000488234 0 -0.00274833)
(-0.000724894 0 0.00904009)
(-0.00260061 0 0.0040262)
(-0.00649184 0 -0.00976709)
(-0.0106658 0 -0.0345144)
(-0.00703942 0 -0.0704874)
(0.00719904 0 -0.0726563)
(0.00971477 0 -0.0396532)
(0.00285511 0 -0.0176013)
(-0.00351184 0 -0.00580314)
(-0.00727319 0 -0.00041527)
(-0.00896933 0 0.00204622)
(-0.00925843 0 0.00318049)
(-0.00877326 0 0.00376485)
(-0.00782414 0 0.00410671)
(-0.00659292 0 0.00431803)
(-0.00519219 0 0.00443934)
(-0.00369535 0 0.00448712)
(-0.00215312 0 0.00447133)
(-0.000606658 0 0.00439785)
(0.000922831 0 0.00426902)
(0.00238927 0 0.00408856)
(0.00378737 0 0.00386542)
(0.005109 0 0.00361708)
(0.00634494 0 0.00335614)
(0.00748964 0 0.00309095)
(0.00854118 0 0.00282766)
(0.00950024 0 0.00257099)
(0.0103694 0 0.00232452)
(0.0111525 0 0.0020908)
(0.0118545 0 0.00187157)
(0.0124807 0 0.00166782)
(0.0130369 0 0.00147995)
(0.0135288 0 0.00130788)
(0.0139621 0 0.00115113)
(0.0143422 0 0.00100896)
(0.0146742 0 0.000880378)
(0.0149628 0 0.000764258)
(0.0152123 0 0.000659358)
(0.0154264 0 0.00056437)
(0.0156084 0 0.000477932)
(0.015761 0 0.000398649)
(0.0158866 0 0.000325095)
(0.0159868 0 0.000255807)
(0.0160629 0 0.000189277)
(0.0161153 0 0.000123938)
(0.0161442 0 5.81257e-05)
(0.0161488 0 -9.95498e-06)
(0.0161277 0 -8.22391e-05)
(0.016079 0 -0.000160825)
(0.0159995 0 -0.000247951)
(0.0158855 0 -0.000346027)
(0.0157321 0 -0.000457621)
(0.0155333 0 -0.000585422)
(0.015282 0 -0.000732142)
(0.0149699 0 -0.00090037)
(0.0145876 0 -0.00109233)
(0.0141249 0 -0.00130953)
(0.0135707 0 -0.00155226)
(0.012914 0 -0.00181897)
(0.0121449 0 -0.00210539)
(0.0112555 0 -0.0024036)
(0.0102424 0 -0.00270098)
(0.00910851 0 -0.00297929)
(0.00786593 0 -0.00321427)
(0.00653853 0 -0.00337591)
(0.00516371 0 -0.00343003)
(0.00378992 0 -0.00334079)
(0.00246797 0 -0.00307389)
(0.00126247 0 -0.00260121)
(0.000487734 0 -0.00191043)
(0.00182724 0 0.00868263)
(0.00255506 0 0.00611399)
(-0.000295663 0 -0.00371467)
(-0.0100495 0 -0.0306491)
(-0.0087042 0 -0.0807107)
(0.00701933 0 -0.0822054)
(0.00668182 0 -0.0333646)
(-0.00649963 0 -0.00828534)
(-0.0125135 0 -0.000669783)
(-0.0146005 0 0.00155439)
(-0.0147368 0 0.00221098)
(-0.0139578 0 0.00240087)
(-0.0127142 0 0.00247608)
(-0.0112197 0 0.00252986)
(-0.00958202 0 0.00257366)
(-0.00786137 0 0.00260084)
(-0.00609805 0 0.0026049)
(-0.00432326 0 0.00258298)
(-0.00256461 0 0.00253437)
(-0.000845606 0 0.00246039)
(0.000827472 0 0.00235663)
(0.0024028 0 0.0022246)
(0.00388667 0 0.00207605)
(0.00527124 0 0.00192168)
(0.00655153 0 0.00176649)
(0.00772675 0 0.00161357)
(0.00879855 0 0.00146527)
(0.00977027 0 0.00132339)
(0.0106465 0 0.00118924)
(0.0114326 0 0.00106368)
(0.0121347 0 0.000947196)
(0.0127589 0 0.000839956)
(0.0133116 0 0.000741864)
(0.0137991 0 0.000652617)
(0.0142272 0 0.000571753)
(0.0146016 0 0.000498692)
(0.0149275 0 0.000432774)
(0.0152095 0 0.00037328)
(0.0154519 0 0.000319455)
(0.0156583 0 0.000270519)
(0.0158318 0 0.000225678)
(0.0159751 0 0.000184119)
(0.01609 0 0.000145017)
(0.0161779 0 0.000107521)
(0.0162397 0 7.07533e-05)
(0.0162754 0 3.37878e-05)
(0.0162845 0 -4.37285e-06)
(0.0162657 0 -4.48464e-05)
(0.0162168 0 -8.87965e-05)
(0.0161349 0 -0.000137469)
(0.0160161 0 -0.000192199)
(0.0158554 0 -0.000254407)
(0.0156468 0 -0.000325573)
(0.0153834 0 -0.000407189)
(0.0150568 0 -0.000500678)
(0.0146581 0 -0.000607263)
(0.0141772 0 -0.000727781)
(0.0136039 0 -0.000862419)
(0.0129279 0 -0.00101037)
(0.0121404 0 -0.00116938)
(0.0112346 0 -0.00133523)
(0.0102083 0 -0.00150116)
(0.00906497 0 -0.00165731)
(0.00781703 0 -0.0017903)
(0.00648786 0 -0.00188319)
(0.00511412 0 -0.00191579)
(0.0037444 0 -0.00186573)
(0.00243209 0 -0.00171047)
(0.00124499 0 -0.0014315)
(0.000509399 0 -0.00102861)
(0.00565171 0 0.00711531)
(0.0113296 0 0.00505917)
(0.0132598 0 -0.00359258)
(-0.00374087 0 -0.0318351)
(-0.0072517 0 -0.0909131)
(0.00555299 0 -0.0914594)
(-0.000416203 0 -0.0320725)
(-0.0196979 0 -0.00668227)
(-0.0228847 0 0.000331269)
(-0.0210591 0 0.00185027)
(-0.0188834 0 0.00199571)
(-0.0169015 0 0.00189928)
(-0.0149983 0 0.00182227)
(-0.0131077 0 0.00179138)
(-0.011207 0 0.00178669)
(-0.00929239 0 0.00178824)
(-0.00737208 0 0.00178347)
(-0.00546143 0 0.00176593)
(-0.00357979 0 0.00173282)
(-0.0017483 0 0.00168378)
(2.82571e-05 0 0.00161532)
(0.00171398 0 0.00152551)
(0.00329069 0 0.00142314)
(0.00475882 0 0.00131701)
(0.0061134 0 0.00121061)
(0.00735464 0 0.00110607)
(0.00848529 0 0.00100489)
(0.00950947 0 0.000908163)
(0.0104324 0 0.000816704)
(0.0112599 0 0.000731058)
(0.0119987 0 0.000651538)
(0.0126552 0 0.000578258)
(0.0132364 0 0.000511159)
(0.0137488 0 0.000450048)
(0.0141987 0 0.000394625)
(0.0145921 0 0.000344511)
(0.0149345 0 0.000299269)
(0.0152308 0 0.000258422)
(0.0154856 0 0.000221466)
(0.0157026 0 0.000187879)
(0.0158853 0 0.000157127)
(0.0160363 0 0.000128665)
(0.0161578 0 0.000101936)
(0.0162513 0 7.63711e-05)
(0.0163177 0 5.13786e-05)
(0.0163573 0 2.634e-05)
(0.0163694 0 5.90243e-07)
(0.016353 0 -2.6644e-05)
(0.0163059 0 -5.61232e-05)
(0.0162251 0 -8.86847e-05)
(0.0161069 0 -0.000125228)
(0.0159462 0 -0.000166709)
(0.0157371 0 -0.000214131)
(0.0154726 0 -0.000268511)
(0.0151444 0 -0.000330831)
(0.0147435 0 -0.000401957)
(0.0142598 0 -0.00048252)
(0.013683 0 -0.000572744)
(0.0130027 0 -0.000672219)
(0.0122097 0 -0.000779604)
(0.0112968 0 -0.000892255)
(0.0102607 0 -0.00100581)
(0.00910408 0 -0.00111372)
(0.00783781 0 -0.0012069)
(0.00648422 0 -0.00127343)
(0.00507985 0 -0.0012987)
(0.00367557 0 -0.00126589)
(0.00233361 0 -0.00115575)
(0.00114735 0 -0.000947558)
(0.000464223 0 -0.000679324)
)
;

boundaryField
{
    walls
    {
        type            noSlip;
    }
    top
    {
        type            slip;
    }
    bottom
    {
        type            noSlip;
    }
    frontAndBack
    {