/*--------------------------------*- C++ -*----------------------------------*\
  =========                 |
  \\      /  F ield         | OpenFOAM: The Open Source CFD Toolbox
   \\    /   O peration     | Website:  https://openfoam.org
    \\  /    A nd           | Version:  13
     \\/     M anipulation  |
\*---------------------------------------------------------------------------*/
FoamFile
{
    format      ascii;
    class       volScalarField;
    location    "499.831886";
    object      T;
}
// * * * * * * * * * * * * * * * * * * * * * * * * * * * * * * * * * * * * * //

dimensions      [0 0 0 1 0 0 0];

internalField   nonuniform List<scalar> 
5712
(
342.873
342.97
343.13
343.28
343.509
343.662
344.025
344.152
343.91
344.057
343.504
343.651
343.205
343.342
342.977
343.081
343.637
343.836
343.899
344.173
344.267
344.52
344.51
344.832
342.55
342.016
342.653
342.152
342.795
342.282
342.956
342.47
343.355
343.057
343.63
343.253
342.611
342.925
344.222
344.701
344.491
344.85
344.798
345.207
345.116
345.428
343.678
344.175
343.966
344.344
343.241
343.723
341.402
341.032
341.657
341.271
341.671
341.206
341.973
341.544
342.063
341.435
342.535
341.948
342.906
342.324
343.334
342.741
343.796
343.885
344.211
344.258
344.631
344.741
344.967
345.077
343.48
343.385
342.998
342.991
344.565
344.569
344.886
344.828
345.271
345.361
345.558
345.604
343.878
343.712
344.234
343.979
342.762
342.058
342.517
341.733
342.247
341.53
342.109
341.298
343.19
342.502
342.854
342.083
343.574
342.893
343.122
342.361
340.529
339.728
340.396
339.605
340.776
340.027
340.533
339.777
341.192
340.612
340.768
340.143
343.214
344.194
342.323
341.653
340.926
344.042
343.006
341.942
341.228
340.449
344.319
343.396
342.504
341.66
340.833
338.989
338.611
338.604
338.27
339.361
338.927
338.857
338.496
340.012
339.524
339.293
338.864
343.793
343.383
342.664
342.117
341.621
341.059
340.794
340.241
339.712
339.167
344.132
343.797
343.099
342.534
342.134
341.496
341.176
340.494
339.976
339.268
343.61
342.983
344.067
343.509
344.626
344.419
345.038
344.908
343.038
342.313
342.594
341.822
344.454
343.896
344.709
344.176
345.371
345.246
345.613
345.514
343.442
342.704
343.698
342.977
341.872
341.009
340.437
339.406
341.511
340.603
340.191
339.176
342.202
341.367
340.671
339.658
342.513
341.669
340.993
340.033
338.464
338.273
337.956
338.399
338.297
338.005
338.703
338.473
338.136
338.581
338.462
338.146
339.194
338.899
338.522
338.858
338.692
338.337
342.88
342.31
341.71
341.529
341.027
340.497
340.513
340.076
339.608
339.79
339.415
338.969
339.081
338.859
338.443
343.326
342.683
342.001
341.775
341.108
340.438
340.726
340.13
339.528
339.882
339.418
338.884
339.1
338.818
338.337
345.384
345.59
345.571
345.837
344.88
345.133
345.092
345.407
345.455
345.855
345.507
345.878
345.583
345.938
345.674
346.006
345.972
345.792
346.089
345.877
346.025
346.173
346.049
346.295
345.661
345.933
346.096
346.334
346.263
346.487
346.264
346.497
346.26
346.618
346.193
346.524
346.321
346.687
346.308
346.641
346.382
346.778
346.489
346.844
346.57
346.877
346.768
347.014
345.853
346.029
346.098
346.293
345.324
345.476
345.607
345.771
346.44
346.671
346.223
346.438
346.336
346.521
346.571
346.722
345.874
346.024
346.132
346.247
346.65
346.874
346.866
347.053
346.724
347.026
346.916
347.088
346.548
346.878
346.712
346.916
346.897
347.158
347.095
347.235
347.086
347.3
347.252
347.364
346.226
346.032
346.572
346.373
346.237
346.032
346.601
346.395
346.256
346.071
346.648
346.463
345.661
345.03
346.056
346.371
346.704
344.889
345.512
345.875
346.185
346.542
345.158
345.773
346.216
346.512
346.747
345.707
345.264
346.045
345.616
345.737
345.314
346.1
345.687
345.812
345.41
346.205
345.819
344.702
344.356
345.363
345.009
345.738
345.376
346.029
345.661
346.367
346.002
345.038
344.826
345.668
345.454
346.098
345.846
346.372
346.068
346.578
346.208
346.053
345.959
346.323
346.298
345.48
345.404
345.8
345.812
346.656
346.544
346.423
346.253
346.532
346.56
346.73
346.779
346.05
346.113
346.272
346.359
346.844
346.78
347.023
346.976
346.855
346.65
346.935
346.63
346.643
346.386
346.769
346.426
347.029
346.869
347.078
346.81
347.178
347.035
347.209
346.973
344.666
344.075
343.52
344.881
344.212
343.654
344.751
344.151
343.583
344.981
344.307
343.724
344.88
344.29
343.711
345.144
344.437
343.814
343.893
343.323
342.713
344.535
343.944
343.318
344.894
344.275
343.637
345.15
344.531
343.911
345.321
344.575
343.896
344.448
343.825
343.13
345.058
344.421
343.72
345.397
344.722
343.998
345.543
344.833
344.103
345.494
344.71
343.962
346.752
346.479
345.796
344.565
346.64
346.347
345.643
344.403
346.802
346.518
345.832
344.589
346.731
346.42
345.708
344.462
346.869
346.568
345.909
344.702
346.899
346.563
345.861
344.627
346.881
346.508
345.757
344.494
346.956
346.541
345.759
344.487
347.025
346.667
345.979
344.754
347.002
346.62
345.988
344.885
346.914
346.592
345.97
344.833
346.88
346.534
345.947
344.908
347.115
346.722
345.98
344.71
347.11
346.695
346.025
344.895
347.208
346.78
346.011
344.747
347.204
346.76
346.07
344.943
346.73
346.486
345.864
344.704
346.569
346.36
345.828
344.814
346.745
346.492
345.878
344.725
346.576
346.358
345.829
344.824
346.766
346.497
345.902
344.782
346.611
346.371
345.84
344.846
346.772
346.483
345.917
344.861
346.644
346.379
345.854
344.888
346.757
346.446
345.904
344.936
346.321
346.144
345.664
344.935
346.044
345.887
345.397
344.711
346.352
346.161
345.677
344.949
346.077
345.903
345.406
344.718
346.409
346.191
345.695
344.962
346.134
345.931
345.421
344.731
346.492
346.237
345.729
344.992
346.211
345.97
345.445
344.748
346.598
346.296
345.77
345.024
346.301
346.016
345.47
344.766
346.801
346.412
345.827
345.051
346.532
346.15
345.554
344.823
346.702
346.354
345.797
345.035
346.417
346.082
345.512
344.795
346.892
346.467
345.855
345.065
346.639
346.214
345.594
344.854
346.979
346.523
345.893
345.096
346.737
346.276
345.635
344.887
342.715
341.233
339.979
338.965
338.19
342.622
341.158
339.908
338.895
338.122
342.727
341.239
339.982
338.967
338.192
342.639
341.169
339.916
338.902
338.128
342.748
341.249
339.989
338.972
338.196
342.708
341.227
339.969
338.953
338.177
342.671
341.189
339.93
338.913
338.137
342.694
341.206
339.943
338.923
338.146
342.762
341.257
339.994
338.976
338.199
342.686
341.148
339.882
338.865
338.09
342.745
341.23
339.967
338.95
338.174
342.661
341.123
339.858
338.843
338.068
342.765
341.257
339.992
338.973
338.195
342.678
341.137
339.869
338.851
338.076
342.789
341.274
340.004
338.982
338.204
342.685
341.136
339.865
338.845
338.069
342.705
341.199
339.941
338.927
338.153
342.593
341.067
339.811
338.8
338.028
342.707
341.196
339.938
338.923
338.149
342.596
341.067
339.81
338.798
338.026
342.706
341.186
339.924
338.909
338.135
342.595
341.061
339.802
338.79
338.018
342.673
341.138
339.875
338.86
338.086
342.577
341.039
339.778
338.766
337.994
342.607
341.068
339.806
338.792
338.019
336.976
336.75
337.082
336.852
337.277
337.021
337.527
337.225
337.781
337.429
338.191
337.787
337.984
337.587
338.392
338.004
338.598
338.247
334.586
331.998
329.845
328.185
327.062
334.621
332.016
329.84
328.17
327.029
334.635
332.024
329.86
328.197
327.072
334.666
332.036
329.855
328.175
327.037
334.732
332.078
329.895
328.222
327.094
334.76
332.088
329.889
328.2
327.057
334.865
332.156
329.947
328.26
327.125
334.881
332.159
329.935
328.234
327.085
335.021
332.255
330.014
328.31
327.167
335.013
332.243
329.993
328.276
327.122
335.357
332.497
330.192
328.448
327.288
335.32
332.462
330.153
328.403
327.234
335.189
332.373
330.099
328.374
327.223
335.158
332.343
330.064
328.331
327.17
335.524
332.624
330.289
328.526
327.357
335.5
332.599
330.258
328.488
327.31
335.693
332.755
330.39
328.607
327.428
335.693
332.743
330.372
328.58
327.389
346.019
345.663
345.323
345.731
345.128
345.19
345.214
345.298
345.103
345.216
344.622
344.753
344.357
344.504
344.716
344.84
344.851
344.939
344.872
344.939
345.682
345.743
344.469
343.988
343.855
343.799
344.236
344.616
344.085
344.658
343.614
342.929
344.488
344.324
343.785
344.327
344.105
344.042
345.042
345.025
344.695
344.784
344.94
345.037
344.884
344.712
344.114
344.213
344.463
344.563
345.489
345.588
345.354
345.426
345.234
345.226
344.848
344.429
344.867
346.354
346.69
346.825
346.792
346.585
346.247
346.531
346.647
346.584
346.32
344.815
344.974
344.986
344.844
344.539
344.32
344.465
344.465
344.313
344.007
344.191
344.341
344.347
344.201
343.898
344.13
344.274
344.274
344.123
343.818
344.577
344.732
344.741
344.596
344.292
345.346
345.781
346.005
346.038
345.888
344.86
345.33
345.566
345.602
345.43
345.184
345.515
345.684
345.66
345.419
344.33
344.78
344.997
345.011
344.802
343.623
344.082
344.301
344.316
344.109
344.908
345.148
345.238
345.154
344.88
344.808
345.108
345.25
345.205
344.953
344.253
344.54
344.673
344.622
344.368
344.719
344.931
344.996
344.894
344.612
344.519
344.754
344.841
344.756
344.483
344.426
344.63
344.689
344.583
344.3
345.714
346.085
346.266
346.271
346.092
345.493
345.773
345.898
345.841
345.581
345.095
345.315
345.386
345.287
345.005
345.168
345.369
345.421
345.309
345.02
345.354
345.584
345.664
345.573
345.294
345.429
345.637
345.696
345.588
345.299
345.25
345.43
345.463
345.334
345.036
345.075
345.254
345.285
345.156
344.858
344.472
344.646
344.676
344.548
344.253
344.561
344.725
344.743
344.606
344.305
344.838
345.032
345.079
344.964
344.673
344.928
345.11
345.144
345.019
344.723
346.141
346.487
346.636
346.613
346.419
346.063
346.332
346.44
346.37
346.102
345.899
346.208
346.353
346.321
346.099
345.852
346.088
346.172
346.083
345.803
345.638
345.856
345.924
345.822
345.537
345.685
345.954
346.071
346.008
345.744
345.218
345.402
345.438
345.313
345.016
344.779
344.944
344.963
344.826
344.524
345.246
345.441
345.489
345.372
345.079
345.883
345.666
345.866
345.625
346.363
346.111
346.374
346.15
345.847
345.82
345.615
345.663
346.355
346.34
346.123
346.191
345.373
344.87
345.177
344.694
345.37
344.916
345.14
344.695
345.132
345.337
345.243
345.38
344.985
344.779
345.333
345.091
345.443
345.178
345.823
345.569
345.972
345.725
344.86
344.601
345.013
344.717
344.496
344.187
344.407
343.999
344.252
343.865
344.441
343.959
344.243
343.815
344.527
343.877
344.389
343.809
344.127
343.535
343.774
343.172
345.66
345.527
345.55
345.4
346.29
346.242
346.174
346.131
344.949
344.583
345.05
344.715
345.375
345.246
345.151
345.054
346.004
345.988
345.796
345.814
344.771
344.422
344.528
344.215
344.321
343.605
343.734
342.934
344.393
343.624
343.849
343.006
344.148
343.462
343.578
342.8
343.891
343.215
343.364
342.601
344.387
344.168
343.937
343.588
344.426
344.246
343.874
343.538
344.496
344.4
343.76
343.482
345.689
346.339
345.052
344.366
343.489
346.361
345.744
345.109
344.387
343.346
346.301
345.602
344.797
343.918
343.008
343.799
343.622
342.649
342.304
343.972
343.795
342.716
342.371
344.23
344.082
342.796
342.449
346.345
346.243
345.688
345.568
345
344.88
344.17
344.019
342.685
342.315
346.295
346.186
345.526
345.287
344.653
344.353
343.642
343.288
342.286
341.841
345.336
344.927
345.22
344.801
346.211
346.153
346.109
346.072
344.236
343.648
344.376
343.817
345.117
344.637
344.927
344.414
345.988
345.923
345.817
345.733
344.132
343.472
343.924
343.224
343.063
342.313
341.579
340.642
343.269
342.54
341.856
340.978
342.902
342.125
341.342
340.376
342.75
341.92
341.207
340.258
343.54
343.377
342.499
342.46
343.709
343.529
342.541
342.515
343.957
343.701
342.581
342.539
346.033
345.664
345.344
344.997
344.683
344.382
343.855
343.571
342.496
342.466
345.97
345.572
344.953
344.587
344.057
343.777
343.153
343.009
342.216
342.248
347.151
347.163
346.925
347.018
346.799
346.81
346.563
346.658
347.397
347.566
347.182
347.358
347.39
347.548
347.157
347.328
347.194
347.392
347.226
347.373
347.511
347.321
346.808
346.559
346.452
346.209
346.92
346.638
347.009
346.756
347.055
346.795
347.661
347.708
347.458
347.516
347.661
347.724
347.446
347.528
347.651
347.743
347.49
347.606
347.249
347.39
347.017
347.201
347.221
347.227
347.115
347.15
346.819
346.82
346.707
346.725
347.385
347.433
347.482
347.495
346.961
347.037
346.777
346.896
346.545
346.596
346.351
346.439
347.237
347.334
347.062
347.208
347.571
347.681
347.587
347.634
347.659
347.739
347.638
347.669
347.431
347.573
347.502
347.568
347.266
347.441
347.389
347.476
347.751
347.719
347.784
347.73
347.736
347.701
347.781
347.721
347.7
347.671
347.768
347.714
347.26
346.865
347.515
347.678
347.735
346.863
347.241
347.492
347.653
347.698
346.869
347.259
347.517
347.651
347.671
347.579
347.332
347.562
347.299
347.581
347.351
347.575
347.322
347.58
347.375
347.592
347.36
346.858
346.758
347.236
347.114
347.462
347.311
347.596
347.419
347.603
347.391
346.888
346.838
347.271
347.205
347.504
347.395
347.61
347.447
347.589
347.377
347.273
347.27
347.182
347.218
346.873
346.905
346.765
346.845
347.423
347.378
347.499
347.423
347.043
347.108
346.9
346.958
346.616
346.724
346.459
346.558
347.304
347.279
347.176
347.14
347.529
347.397
347.494
347.28
347.59
347.431
347.551
347.325
347.438
347.315
347.416
347.197
347.319
347.187
347.32
347.098
347.03
346.745
346.915
346.581
347.069
346.764
346.943
346.59
347.106
346.767
346.987
346.577
346.548
346.175
346.883
346.502
347.068
346.685
347.153
346.757
347.015
346.532
346.66
346.231
346.998
346.55
347.14
346.673
347.136
346.649
346.961
346.415
347.51
346.989
346.144
344.799
347.333
346.816
345.964
344.621
347.52
347.002
346.16
344.805
347.351
346.84
345.995
344.655
347.528
347.014
346.212
344.9
347.421
346.917
346.106
344.792
347.231
346.746
345.922
344.606
347.083
346.628
345.819
344.528
347.477
346.975
346.194
344.904
347.387
346.883
346.176
345.024
347.506
346.993
346.247
345.021
347.408
346.893
346.197
345.084
347.403
346.919
346.119
344.81
347.346
346.857
346.144
344.987
347.308
346.848
346.06
344.782
347.284
346.815
346.111
344.975
347.568
347.047
346.245
344.962
347.49
346.97
346.243
345.101
347.557
347.037
346.247
344.972
347.472
346.952
346.232
345.1
347.529
347.01
346.249
345.011
347.449
346.929
346.217
345.103
347.474
346.956
346.238
345.074
347.417
346.896
346.203
345.122
347.398
346.878
346.201
345.139
347.303
346.785
346.098
345.263
347.059
346.541
345.843
345.062
347.304
346.784
346.1
345.268
347.058
346.538
345.841
345.059
347.298
346.777
346.092
345.259
347.052
346.529
345.832
345.054
347.291
346.767
346.09
345.259
347.044
346.518
345.823
345.046
347.276
346.75
346.084
345.261
347.029
346.498
345.806
345.032
347.192
346.678
346.017
345.204
346.97
346.445
345.763
344.991
347.241
346.718
346.053
345.234
347.009
346.478
345.79
345.018
347.13
346.629
345.973
345.163
346.905
346.394
345.722
344.958
347.058
346.577
345.933
345.129
346.825
346.336
345.677
344.921
342.854
341.318
340.032
339
338.217
342.754
341.239
339.958
338.929
338.148
342.853
341.316
340.031
338.999
338.217
342.755
341.24
339.96
338.932
338.151
342.86
341.317
340.031
339
338.218
342.803
341.286
340.006
338.978
338.196
342.738
341.23
339.956
338.93
338.151
342.72
341.221
339.952
338.93
338.151
342.849
341.31
340.026
338.997
338.216
342.762
341.194
339.911
338.884
338.105
342.847
341.292
340.005
338.976
338.194
342.753
341.177
339.892
338.865
338.086
342.824
341.294
340.015
338.988
338.207
342.73
341.168
339.888
338.864
338.086
342.81
341.286
340.012
338.987
338.208
342.703
341.147
339.871
338.85
338.073
342.849
341.286
339.996
338.964
338.181
342.742
341.156
339.866
338.837
338.056
342.844
341.279
339.989
338.957
338.175
342.739
341.152
339.862
338.833
338.053
342.828
341.259
339.97
338.94
338.158
342.726
341.139
339.85
338.822
338.043
342.782
341.204
339.916
338.888
338.107
342.692
341.107
339.821
338.794
338.016
342.708
341.128
339.843
338.817
338.038
340.245
339.983
340.208
339.94
340.123
339.849
339.988
339.719
339.77
339.539
339.214
338.914
339.464
339.204
338.996
338.666
338.797
338.462
336.945
333.66
331.064
329.137
327.881
337.018
333.698
331.068
329.128
327.85
336.912
333.636
331.047
329.124
327.87
336.974
333.664
331.05
329.107
327.836
336.843
333.589
331.014
329.099
327.849
336.907
333.619
331.019
329.083
327.816
336.736
333.517
330.962
329.059
327.816
336.809
333.553
330.972
329.048
327.786
336.584
333.415
330.889
329.002
327.767
336.682
333.47
330.912
329.001
327.746
336.217
333.161
330.703
328.857
327.643
336.282
333.201
330.719
328.853
327.624
336.404
333.295
330.802
328.935
327.708
336.499
333.352
330.828
328.937
327.692
336.039
333.026
330.601
328.776
327.574
336.074
333.046
330.604
328.764
327.55
335.864
332.889
330.494
328.691
327.501
335.88
332.89
330.487
328.672
327.468
346.337
346
346.268
346.621
347.146
346.927
347.149
346.899
346.797
346.539
346.799
346.577
342.221
342.29
342.461
342.733
343.101
343.545
342.198
342.264
342.427
342.682
343.018
343.414
342.053
341.805
342.131
341.893
342.323
342.11
342.63
342.464
343.043
342.918
343.524
343.388
344.024
344.481
344.88
345.214
345.468
345.651
343.839
344.254
344.63
344.949
345.198
345.371
342.524
342.644
342.623
342.46
342.156
342.594
342.715
342.694
342.532
342.228
342.768
342.89
342.871
342.709
342.404
343.043
343.168
343.151
342.99
342.684
343.416
343.545
343.532
343.372
343.066
343.867
344.003
343.995
343.839
343.532
342.502
342.622
342.601
342.439
342.135
342.568
342.689
342.669
342.507
342.203
342.733
342.856
342.838
342.676
342.372
342.992
343.118
343.102
342.941
342.636
343.333
343.464
343.451
343.292
342.987
343.737
343.873
343.866
343.71
343.404
342.355
342.474
342.453
342.29
341.987
342.105
342.223
342.202
342.041
341.739
342.434
342.554
342.533
342.371
342.068
342.195
342.314
342.293
342.132
341.83
342.628
342.749
342.73
342.568
342.264
342.414
342.535
342.515
342.355
342.052
342.939
343.064
343.047
342.886
342.581
342.772
342.896
342.879
342.719
342.415
343.358
343.487
343.474
343.315
343.008
343.232
343.362
343.349
343.191
342.886
343.847
343.983
343.975
343.819
343.512
343.711
343.848
343.841
343.686
343.38
344.356
344.502
344.502
344.351
344.045
344.827
344.986
344.999
344.856
344.551
345.243
345.421
345.45
345.319
345.018
345.601
345.802
345.852
345.736
345.443
345.882
346.106
346.175
346.074
345.787
346.083
346.32
346.399
346.305
346.021
344.17
344.316
344.316
344.165
343.86
344.597
344.753
344.764
344.62
344.316
344.987
345.158
345.181
345.046
344.745
345.322
345.508
345.546
345.421
345.124
345.585
345.786
345.835
345.719
345.425
345.767
345.975
346.03
345.918
345.625
342.256
342.393
342.634
342.976
343.414
343.931
342.232
342.366
342.598
342.921
343.323
343.78
342.089
341.842
342.238
342.006
342.502
342.298
342.884
342.731
343.372
343.263
343.937
343.83
344.478
344.981
345.386
345.663
345.782
345.765
344.253
344.693
345.057
345.313
345.445
345.459
342.559
342.679
342.657
342.494
342.19
342.698
342.818
342.797
342.634
342.329
342.941
343.062
343.042
342.879
342.572
343.286
343.41
343.391
343.228
342.92
343.73
343.857
343.841
343.678
343.368
344.253
344.386
344.373
344.212
343.9
342.536
342.656
342.635
342.472
342.168
342.671
342.792
342.771
342.608
342.303
342.905
343.027
343.007
342.844
342.538
343.231
343.356
343.337
343.174
342.867
343.638
343.766
343.75
343.588
343.279
344.101
344.235
344.223
344.063
343.752
342.391
342.51
342.488
342.326
342.022
342.143
342.261
342.239
342.078
341.776
342.541
342.661
342.64
342.477
342.173
342.307
342.426
342.405
342.243
341.94
342.808
342.929
342.908
342.745
342.44
342.603
342.723
342.703
342.54
342.236
343.193
343.317
343.298
343.135
342.827
343.039
343.162
343.143
342.981
342.674
343.687
343.814
343.797
343.634
343.324
343.577
343.704
343.688
343.525
343.216
344.258
344.391
344.378
344.216
343.904
344.151
344.283
344.271
344.109
343.798
344.809
344.949
344.943
344.784
344.471
345.323
345.474
345.477
345.325
345.012
345.744
345.911
345.927
345.785
345.476
346.042
346.231
346.268
346.139
345.837
346.189
346.402
346.461
346.349
346.055
346.194
346.426
346.501
346.403
346.116
344.583
344.724
344.718
344.561
344.25
345.033
345.184
345.187
345.035
344.725
345.409
345.573
345.587
345.444
345.136
345.681
345.86
345.888
345.755
345.452
345.829
346.023
346.066
345.943
345.645
345.853
346.059
346.111
345.997
345.702
345.878
345.896
345.042
344.48
344.465
344.325
344.835
346.221
346.069
346.105
345.689
345.662
345.769
345.375
345.319
345.095
346.239
346.143
345.715
345.663
345.919
345.836
345.514
345.442
344.955
344.939
345.378
345.368
346.062
346.011
346.213
346.017
345.947
346.146
345.557
345.105
345.666
346.539
346.859
346.982
346.938
346.72
346.395
346.671
346.779
346.709
346.44
345.383
345.533
345.533
345.379
345.065
344.81
344.949
344.941
344.781
344.468
344.796
344.937
344.931
344.774
344.461
344.652
344.79
344.781
344.621
344.308
345.171
345.316
345.313
345.156
344.842
346.807
347.095
347.2
347.139
346.918
346.636
346.91
347.003
346.928
346.689
346.544
346.78
346.857
346.759
346.472
346.199
346.443
346.514
346.42
346.148
346.038
346.222
346.255
346.123
345.818
346.173
346.382
346.435
346.319
346.023
345.736
345.907
345.927
345.787
345.479
345.686
345.863
345.89
345.755
345.45
345.45
345.615
345.631
345.488
345.181
346.816
347.099
347.202
347.137
346.91
346.562
346.784
346.849
346.742
346.449
346.086
346.265
346.292
346.157
345.85
346.026
346.199
346.22
346.079
345.77
346.302
346.493
346.53
346.402
346.099
346.21
346.391
346.421
346.287
345.981
345.871
346.037
346.052
345.907
345.597
345.793
345.954
345.964
345.816
345.504
345.299
345.453
345.459
345.308
344.998
345.279
345.428
345.429
345.275
344.962
345.733
345.897
345.911
345.766
345.456
345.719
345.878
345.888
345.74
345.428
346.684
346.984
347.097
347.043
346.818
346.471
346.721
346.808
346.72
346.439
346.715
346.973
347.068
346.992
346.739
346.427
346.641
346.701
346.59
346.295
346.334
346.528
346.569
346.443
346.141
346.569
346.794
346.864
346.761
346.47
345.915
346.081
346.096
345.951
345.641
345.447
345.598
345.6
345.447
345.134
346.029
346.2
346.22
346.079
345.77
345.501
345.801
345.928
345.891
345.702
345.324
345.957
345.933
346.446
346.458
345.906
345.86
346.427
346.398
345.426
344.87
345.421
344.922
345.368
345.393
345.013
345.975
345.948
346.469
346.484
345.918
345.87
346.445
346.405
345.401
344.817
345.397
344.883
345.347
345.385
344.978
345.972
345.941
346.476
346.495
345.907
345.856
346.445
346.402
345.378
344.672
345.373
344.756
345.32
345.359
344.87
345.867
345.836
346.38
346.402
345.798
345.737
346.347
346.296
345.236
344.488
345.236
344.577
345.188
345.232
344.713
345.675
345.645
346.185
346.207
345.606
345.533
346.151
346.1
345.041
344.339
345.044
344.41
345.002
345.032
344.542
345.329
345.3
345.826
345.848
345.268
345.205
345.793
345.746
344.732
344.088
344.74
344.154
344.705
344.737
344.286
347.232
347.233
346.883
346.886
347.221
347.209
346.871
346.852
347.478
347.661
347.465
347.632
347.458
347.423
347.573
347.259
347.255
346.908
346.915
347.236
347.215
346.889
346.866
347.516
347.664
347.495
347.627
347.473
347.426
347.564
347.272
347.261
346.917
346.93
347.233
347.203
346.89
346.857
347.5
347.588
347.473
347.555
347.437
347.387
347.496
347.176
347.161
346.823
346.839
347.125
347.085
346.791
346.755
347.378
347.411
347.347
347.379
347.298
347.238
347.324
346.97
346.953
346.622
346.64
346.909
346.855
346.589
346.549
347.149
347.15
347.114
347.125
347.059
346.993
347.078
346.592
346.574
346.254
346.271
346.531
346.483
346.22
346.182
346.767
346.807
346.735
346.779
346.688
346.631
346.732
342.856
342.948
343.127
343.277
343.506
343.66
344.023
344.15
343.908
344.055
343.501
343.648
343.201
343.339
342.956
343.055
343.635
343.834
343.897
344.172
344.265
344.519
344.508
344.831
342.537
342.006
342.635
342.138
342.792
342.28
342.954
342.469
343.353
343.055
343.628
343.252
342.609
342.923
344.22
344.701
344.49
344.849
344.797
345.206
345.116
345.427
343.677
344.174
343.965
344.343
343.24
343.722
341.393
341.024
341.644
341.258
341.669
341.204
341.972
341.543
342.061
341.434
342.534
341.947
342.905
342.323
343.333
342.74
343.795
343.885
344.21
344.258
344.63
344.74
344.966
345.077
343.479
343.384
342.997
342.99
344.564
344.568
344.886
344.828
345.271
345.36
345.557
345.603
343.877
343.712
344.233
343.979
342.761
342.057
342.516
341.733
342.246
341.53
342.108
341.298
343.19
342.501
342.853
342.082
343.573
342.892
343.122
342.361
340.518
339.717
340.389
339.598
340.775
340.026
340.532
339.776
341.191
340.611
340.767
340.142
343.213
344.193
342.322
341.653
340.926
344.041
343.006
341.941
341.228
340.449
344.318
343.395
342.503
341.66
340.832
338.978
338.599
338.598
338.264
339.361
338.927
338.856
338.495
340.012
339.524
339.292
338.863
343.793
343.383
342.663
342.117
341.62
341.058
340.793
340.241
339.711
339.166
344.132
343.797
343.099
342.534
342.133
341.496
341.175
340.494
339.975
339.267
343.61
342.983
344.066
343.508
344.626
344.419
345.038
344.907
343.038
342.312
342.593
341.822
344.454
343.895
344.709
344.176
345.371
345.246
345.613
345.513
343.441
342.703
343.697
342.977
341.871
341.008
340.437
339.406
341.511
340.602
340.19
339.175
342.202
341.367
340.67
339.657
342.513
341.669
340.993
340.033
338.454
338.264
337.948
338.393
338.292
338
338.703
338.473
338.136
338.58
338.461
338.146
339.194
338.899
338.522
338.857
338.692
338.337
342.879
342.31
341.709
341.528
341.026
340.497
340.513
340.075
339.607
339.79
339.415
338.968
339.08
338.859
338.443
343.325
342.683
342
341.775
341.107
340.437
340.725
340.129
339.528
339.881
339.418
338.883
339.1
338.818
338.337
345.384
345.59
345.57
345.837
344.879
345.132
345.091
345.406
345.448
345.848
345.497
345.868
345.582
345.938
345.674
346.006
345.971
345.792
346.089
345.876
346.024
346.173
346.049
346.295
345.661
345.933
346.096
346.334
346.263
346.487
346.264
346.496
346.254
346.614
346.184
346.517
346.32
346.686
346.308
346.641
346.382
346.778
346.488
346.844
346.569
346.877
346.768
347.014
345.853
346.029
346.098
346.293
345.323
345.475
345.606
345.77
346.439
346.671
346.222
346.438
346.335
346.521
346.571
346.722
345.873
346.024
346.131
346.246
346.649
346.873
346.866
347.053
346.724
347.026
346.916
347.087
346.547
346.877
346.711
346.916
346.897
347.158
347.094
347.235
347.086
347.3
347.252
347.364
346.223
346.029
346.57
346.372
346.237
346.032
346.601
346.395
346.256
346.071
346.647
346.463
345.661
345.03
346.056
346.371
346.704
344.889
345.512
345.875
346.185
346.542
345.158
345.773
346.215
346.512
346.747
345.705
345.262
346.045
345.615
345.737
345.314
346.1
345.687
345.811
345.41
346.205
345.819
344.702
344.356
345.363
345.009
345.738
345.376
346.029
345.661
346.367
346.001
345.037
344.825
345.668
345.453
346.097
345.846
346.372
346.068
346.577
346.208
346.053
345.959
346.322
346.297
345.48
345.403
345.8
345.811
346.655
346.543
346.422
346.252
346.531
346.56
346.73
346.778
346.05
346.113
346.272
346.358
346.844
346.779
347.023
346.975
346.855
346.649
346.935
346.629
346.643
346.386
346.769
346.426
347.029
346.868
347.078
346.809
347.178
347.034
347.208
346.973
344.664
344.072
343.516
344.88
344.21
343.652
344.751
344.152
343.583
344.981
344.306
343.724
344.88
344.29
343.711
345.144
344.436
343.813
343.893
343.323
342.713
344.535
343.943
343.318
344.893
344.275
343.637
345.15
344.53
343.91
345.321
344.575
343.895
344.448
343.824
343.129
345.058
344.421
343.719
345.397
344.722
343.998
345.543
344.833
344.102
345.493
344.71
343.962
346.75
346.476
345.794
344.562
346.634
346.343
345.638
344.398
346.802
346.518
345.832
344.589
346.731
346.42
345.708
344.463
346.869
346.568
345.909
344.702
346.899
346.563
345.861
344.627
346.88
346.508
345.757
344.494
346.956
346.541
345.759
344.487
347.025
346.667
345.979
344.755
347.002
346.62
345.988
344.885
346.914
346.592
345.97
344.833
346.879
346.534
345.947
344.908
347.115
346.722
345.98
344.71
347.109
346.695
346.025
344.895
347.208
346.78
346.011
344.747
347.204
346.76
346.07
344.943
346.729
346.485
345.863
344.702
346.569
346.36
345.828
344.813
346.745
346.492
345.878
344.726
346.576
346.358
345.829
344.824
346.765
346.497
345.902
344.782
346.611
346.37
345.839
344.846
346.772
346.483
345.916
344.861
346.644
346.379
345.854
344.888
346.757
346.446
345.904
344.936
346.322
346.146
345.665
344.935
346.045
345.889
345.399
344.713
346.352
346.161
345.677
344.949
346.076
345.903
345.406
344.718
346.409
346.191
345.695
344.962
346.133
345.931
345.421
344.73
346.492
346.237
345.729
344.992
346.211
345.97
345.444
344.748
346.598
346.296
345.77
345.024
346.301
346.016
345.47
344.766
346.801
346.412
345.827
345.051
346.532
346.15
345.554
344.823
346.701
346.354
345.797
345.035
346.417
346.082
345.512
344.795
346.892
346.467
345.855
345.065
346.639
346.214
345.594
344.854
346.978
346.523
345.893
345.096
346.737
346.276
345.635
344.887
342.714
341.233
339.979
338.964
338.189
342.619
341.155
339.906
338.894
338.12
342.727
341.239
339.983
338.967
338.192
342.64
341.169
339.917
338.903
338.129
342.748
341.249
339.989
338.972
338.196
342.708
341.227
339.97
338.953
338.177
342.671
341.189
339.93
338.913
338.138
342.695
341.206
339.943
338.923
338.146
342.763
341.257
339.994
338.976
338.199
342.686
341.148
339.882
338.865
338.09
342.745
341.23
339.967
338.95
338.174
342.661
341.123
339.858
338.843
338.069
342.765
341.258
339.992
338.973
338.196
342.678
341.137
339.869
338.851
338.076
342.789
341.274
340.004
338.982
338.204
342.685
341.136
339.865
338.845
338.069
342.705
341.2
339.942
338.928
338.154
342.594
341.069
339.812
338.801
338.03
342.707
341.196
339.937
338.923
338.149
342.596
341.067
339.81
338.798
338.026
342.706
341.186
339.924
338.909
338.135
342.595
341.061
339.802
338.79
338.018
342.673
341.139
339.876
338.861
338.087
342.577
341.039
339.779
338.766
337.994
342.607
341.068
339.806
338.792
338.019
336.97
336.746
337.082
336.851
337.277
337.021
337.527
337.225
337.781
337.428
338.191
337.787
337.984
337.587
338.392
338.004
338.598
338.247
334.583
331.996
329.843
328.184
327.062
334.62
332.016
329.839
328.17
327.029
334.634
332.023
329.86
328.197
327.072
334.665
332.035
329.855
328.175
327.036
334.732
332.078
329.895
328.222
327.093
334.759
332.088
329.888
328.199
327.057
334.864
332.155
329.947
328.26
327.125
334.881
332.159
329.935
328.233
327.085
335.02
332.254
330.014
328.31
327.167
335.013
332.243
329.992
328.276
327.122
335.356
332.497
330.192
328.448
327.288
335.32