/*--------------------------------*- C++ -*----------------------------------*\
| =========                 |                                                 |
| \\      /  F ield         | OpenFOAM: The Open Source CFD Toolbox           |
|  \\    /   O peration     | Version:  2306                                  |
|   \\  /    A nd           | Website:  www.openfoam.com                      |
|    \\/     M anipulation  |                                                 |
\*---------------------------------------------------------------------------*/
FoamFile
{
    version     2.0;
    format      ascii;
    arch        "LSB;label=32;scalar=64";
    class       volVectorField;
    location    "180";
    object      U;
}
// * * * * * * * * * * * * * * * * * * * * * * * * * * * * * * * * * * * * * //

dimensions      [0 1 -1 0 0 0 0];

internalField   nonuniform List<vector> 
4480
(
(-0.000211584 0 0.000211257)
(-0.000444081 0 0.000273681)
(-0.000864697 0 0.000307332)
(-0.001324 0 0.000330358)
(-0.00179886 0 0.000339209)
(-0.00227376 0 0.000333157)
(-0.00272993 0 0.000312954)
(-0.00314791 0 0.000279264)
(-0.00350899 0 0.000232466)
(-0.00379498 0 0.000172838)
(-0.00398802 0 0.000100698)
(-0.00407071 0 1.64763e-05)
(-0.00402661 0 -7.92092e-05)
(-0.00383992 0 -0.000185293)
(-0.00349722 0 -0.000299817)
(-0.00298855 0 -0.000419932)
(-0.0023087 0 -0.000541975)
(-0.00145871 0 -0.000661584)
(-0.000444697 0 -0.000774132)
(0.000724173 0 -0.000873221)
(0.00201435 0 -0.000951007)
(0.00339848 0 -0.00100409)
(0.00484029 0 -0.00103141)
(0.00630302 0 -0.00103304)
(0.00775107 0 -0.00101025)
(0.00915146 0 -0.00096538)
(0.0104751 0 -0.00090161)
(0.0116976 0 -0.000822601)
(0.0128001 0 -0.000732232)
(0.0137692 0 -0.000634345)
(0.0145968 0 -0.000532552)
(0.0152796 0 -0.000430096)
(0.0158186 0 -0.000329771)
(0.0162185 0 -0.000233887)
(0.0164869 0 -0.00014426)
(0.0166335 0 -6.21948e-05)
(0.0166693 0 1.16629e-05)
(0.0166071 0 7.72096e-05)
(0.0164576 0 0.000134567)
(0.0162323 0 0.000183976)
(0.0159425 0 0.000225731)
(0.0155987 0 0.000260221)
(0.0152109 0 0.000287913)
(0.0147882 0 0.000309334)
(0.0143393 0 0.000325047)
(0.0138718 0 0.000335632)
(0.0133925 0 0.000341673)
(0.0129074 0 0.000343742)
(0.0124218 0 0.00034239)
(0.0119402 0 0.000338137)
(0.0114663 0 0.000331468)
(0.0110032 0 0.000322826)
(0.0105534 0 0.000312613)
(0.0101189 0 0.000301188)
(0.0097012 0 0.000288868)
(0.00930135 0 0.00027593)
(0.00892007 0 0.000262609)
(0.00855776 0 0.000249109)
(0.00821454 0 0.000235598)
(0.00789033 0 0.000222217)
(0.00758488 0 0.000209076)
(0.00729779 0 0.000196267)
(0.00702853 0 0.000183858)
(0.00677651 0 0.0001719)
(0.00654106 0 0.000160428)
(0.00632149 0 0.000149466)
(0.00611706 0 0.000139025)
(0.00592703 0 0.000129107)
(0.00575068 0 0.000119709)
(0.00558727 0 0.000110819)
(0.00543609 0 0.000102421)
(0.00529648 0 9.44945e-05)
(0.00516776 0 8.70173e-05)
(0.00504934 0 7.99637e-05)
(0.00494062 0 7.33064e-05)
(0.00484107 0 6.70163e-05)
(0.00475019 0 6.10635e-05)
(0.00466752 0 5.5417e-05)
(0.00459265 0 5.00451e-05)
(0.00452522 0 4.4915e-05)
(0.0044649 0 3.99934e-05)
(0.00441143 0 3.52456e-05)
(0.00436458 0 3.06363e-05)
(0.00432418 0 2.61282e-05)
(0.00429011 0 2.16827e-05)
(0.00426231 0 1.7259e-05)
(0.00424079 0 1.28136e-05)
(0.00422559 0 8.30044e-06)
(0.00421684 0 3.67087e-06)
(0.00421475 0 -1.12558e-06)
(0.0042196 0 -6.15196e-06)
(0.00423174 0 -1.14815e-05)
(0.00425167 0 -1.71943e-05)
(0.00427996 0 -2.33842e-05)
(0.00431738 0 -3.01605e-05)
(0.00436483 0 -3.76521e-05)
(0.00442341 0 -4.60123e-05)
(0.00449446 0 -5.54253e-05)
(0.0045796 0 -6.61142e-05)
(0.0046808 0 -7.83517e-05)
(0.00480046 0 -9.24729e-05)
(0.00494147 0 -0.000108893)
(0.0051074 0 -0.00012813)
(0.00530264 0 -0.000150829)
(0.00553258 0 -0.0001778)
(0.00580394 0 -0.000210049)
(0.00612507 0 -0.000248808)
(0.00650644 0 -0.000295552)
(0.00696104 0 -0.000351968)
(0.00750493 0 -0.000419851)
(0.00815853 0 -0.000501315)
(0.00895031 0 -0.000601586)
(0.00991666 0 -0.000739978)
(0.0110707 0 -0.000972501)
(0.0124312 0 -0.00144539)
(0.0148615 0 -0.00281589)
(0.022404 0 -0.00868602)
(0.0364456 0 -0.0317739)
(0.0408133 0 -0.0811171)
(0.0175472 0 -0.101778)
(-0.0120023 0 -0.103315)
(-0.0365813 0 -0.0835759)
(-0.0324339 0 -0.0325921)
(-0.0178081 0 -0.00906387)
(-0.00996202 0 -0.00295079)
(-0.0074732 0 -0.00148644)
(-0.00611305 0 -0.000976902)
(-0.00496635 0 -0.000732351)
(-0.00400865 0 -0.000592485)
(-0.00322495 0 -0.000494023)
(-0.00257763 0 -0.000414563)
(-0.00203841 0 -0.000347901)
(-0.00158791 0 -0.00029166)
(-0.00121141 0 -0.000243937)
(-0.000897451 0 -0.000202939)
(-0.000637393 0 -0.000167042)
(-0.000424417 0 -0.000134927)
(-0.000252336 0 -0.000105997)
(-0.000118303 0 -8.05952e-05)
(-5.33086e-05 0 -5.36694e-05)
(-0.000275619 0 0.000444227)
(-0.000568053 0 0.000565133)
(-0.00107388 0 0.000644956)
(-0.0016168 0 0.000691967)
(-0.00217466 0 0.000707932)
(-0.00272977 0 0.000693644)
(-0.00325995 0 0.000650256)
(-0.00374228 0 0.000578749)
(-0.00415461 0 0.000479786)
(-0.00447528 0 0.000353918)
(-0.00468314 0 0.000201816)
(-0.0047577 0 2.44476e-05)
(-0.00467974 0 -0.00017688)
(-0.00443134 0 -0.000399753)
(-0.00399771 0 -0.000639931)
(-0.00336818 0 -0.000891371)
(-0.00253768 0 -0.00114636)
(-0.0015084 0 -0.00139596)
(-0.000286642 0 -0.00163112)
(0.00111186 0 -0.00183698)
(0.00264815 0 -0.00199854)
(0.00429017 0 -0.00210956)
(0.00599662 0 -0.00216714)
(0.00772568 0 -0.00217122)
(0.00943688 0 -0.00212433)
(0.0110927 0 -0.00203131)
(0.0126599 0 -0.00189871)
(0.0141109 0 -0.0017341)
(0.0154239 0 -0.00154554)
(0.0165834 0 -0.00134103)
(0.0175795 0 -0.00112809)
(0.0184081 0 -0.000913487)
(0.0190697 0 -0.000703048)
(0.0195689 0 -0.000501595)
(0.0199136 0 -0.000312915)
(0.0201142 0 -0.000139757)
(0.0201826 0 1.62875e-05)
(0.0201333 0 0.000154945)
(0.0199785 0 0.00027657)
(0.0197317 0 0.00038152)
(0.0194058 0 0.000470386)
(0.0190132 0 0.00054397)
(0.0185656 0 0.00060324)
(0.0180739 0 0.000649286)
(0.0175484 0 0.000683275)
(0.0169981 0 0.000706417)
(0.0164313 0 0.00071993)
(0.0158555 0 0.000725011)
(0.0152769 0 0.000722814)
(0.0147011 0 0.000714431)
(0.0141329 0 0.000700882)
(0.013576 0 0.000683102)
(0.0130338 0 0.000661939)
(0.0125088 0 0.000638155)
(0.0120029 0 0.00061242)
(0.0115176 0 0.000585321)
(0.0110539 0 0.000557364)
(0.0106124 0 0.00052898)
(0.0101936 0 0.000500532)
(0.00979723 0 0.000472318)
(0.00942326 0 0.000444581)
(0.00907125 0 0.000417516)
(0.00874067 0 0.000391271)
(0.00843086 0 0.000365959)
(0.00814108 0 0.000341658)
(0.00787052 0 0.00031842)
(0.00761836 0 0.000296272)
(0.00738373 0 0.000275223)
(0.00716577 0 0.000255265)
(0.00696363 0 0.000236375)
(0.00677645 0 0.000218523)
(0.00660345 0 0.000201666)
(0.00644382 0 0.000185758)
(0.00629685 0 0.000170746)
(0.00616181 0 0.000156572)
(0.00603807 0 0.000143176)
(0.00592501 0 0.000130495)
(0.0058221 0 0.000118463)
(0.00572881 0 0.000107015)
(0.00564472 0 9.60802e-05)
(0.00556942 0 8.55887e-05)
(0.00550258 0 7.54677e-05)
(0.00544394 0 6.56417e-05)
(0.00539328 0 5.60325e-05)
(0.00535045 0 4.65581e-05)
(0.00531537 0 3.71321e-05)
(0.00528804 0 2.76625e-05)
(0.00526853 0 1.80516e-05)
(0.00525698 0 8.195e-06)
(0.00525364 0 -2.01743e-06)
(0.00525886 0 -1.27144e-05)
(0.00527306 0 -2.40482e-05)
(0.00529682 0 -3.61914e-05)
(0.00533088 0 -4.93422e-05)
(0.00537612 0 -6.37316e-05)
(0.00543364 0 -7.96319e-05)
(0.00550478 0 -9.7367e-05)
(0.00559115 0 -0.000117326)
(0.00569471 0 -0.000139982)
(0.00581783 0 -0.00016591)
(0.00596339 0 -0.000195822)
(0.00613491 0 -0.000230603)
(0.00633669 0 -0.000271359)
(0.00657404 0 -0.000319491)
(0.00685356 0 -0.000376783)
(0.00718353 0 -0.000445526)
(0.00757452 0 -0.000528692)
(0.0080402 0 -0.000630191)
(0.0085988 0 -0.000755286)
(0.0092755 0 -0.000911381)
(0.0101073 0 -0.00110988)
(0.0111533 0 -0.00137173)
(0.0125097 0 -0.00174294)
(0.0143284 0 -0.00232712)
(0.0168906 0 -0.00334523)
(0.0209494 0 -0.00538826)
(0.0279244 0 -0.010674)
(0.0354889 0 -0.0259542)
(0.0322132 0 -0.0583753)
(0.0145604 0 -0.0760367)
(-0.00862722 0 -0.0771095)
(-0.0270588 0 -0.0602061)
(-0.0304318 0 -0.02688)
(-0.0225201 0 -0.0110976)
(-0.0152791 0 -0.00557787)
(-0.011079 0 -0.0034238)
(-0.0084358 0 -0.00235244)
(-0.00656609 0 -0.00174593)
(-0.00517787 0 -0.00136766)
(-0.00411179 0 -0.00110489)
(-0.00326616 0 -0.000907114)
(-0.00257948 0 -0.000751389)
(-0.00201395 0 -0.000625385)
(-0.00154464 0 -0.000521166)
(-0.00115423 0 -0.00043308)
(-0.000830426 0 -0.000356898)
(-0.000563892 0 -0.00028949)
(-0.000346135 0 -0.000228722)
(-0.000171469 0 -0.000172789)
(-7.96925e-05 0 -0.000118923)
(-0.000314592 0 0.000869038)
(-0.000659079 0 0.00107323)
(-0.00123643 0 0.00121494)
(-0.00184629 0 0.00129676)
(-0.00246759 0 0.00132126)
(-0.0030816 0 0.00129005)
(-0.00366386 0 0.00120474)
(-0.00418899 0 0.0010667)
(-0.00463235 0 0.000877009)
(-0.0049698 0 0.000636731)
(-0.00517775 0 0.00034724)
(-0.00523354 0 1.05586e-05)
(-0.00511585 0 -0.000370433)
(-0.0048055 0 -0.00079054)
(-0.00428688 0 -0.00124151)
(-0.00354901 0 -0.00171198)
(-0.00258732 0 -0.00218761)
(-0.00140546 0 -0.0026519)
(-8.76393e-06 0 -0.00308747)
(0.00157688 0 -0.00346504)
(0.00331107 0 -0.00376042)
(0.00515686 0 -0.00396304)
(0.00706905 0 -0.00406761)
(0.00900223 0 -0.004074)
(0.0109127 0 -0.00398696)
(0.01276 0 -0.00381534)
(0.014509 0 -0.00357099)
(0.0161299 0 -0.00326768)
(0.0175999 0 -0.00291995)
(0.0189024 0 -0.00254227)
(0.020027 0 -0.00214826)
(0.0209689 0 -0.0017502)
(0.0217285 0 -0.00135872)
(0.0223102 0 -0.000982664)
(0.022722 0 -0.000628999)
(0.0229744 0 -0.00030287)
(0.0230799 0 -7.53696e-06)
(0.0230526 0 0.000255919)
(0.0229066 0 0.000487831)
(0.0226561 0 0.000688758)
(0.022315 0 0.000859701)
(0.0218969 0 0.00100206)
(0.0214146 0 0.00111756)
(0.0208802 0 0.00120815)
(0.0203049 0 0.00127596)
(0.0196991 0 0.00132318)
(0.0190719 0 0.00135205)
(0.0184317 0 0.00136479)
(0.0177858 0 0.00136353)
(0.0171406 0 0.00135032)
(0.0165016 0 0.00132707)
(0.0158733 0 0.00129553)
(0.0152597 0 0.00125732)
(0.0146638 0 0.00121387)
(0.014088 0 0.00116647)
(0.0135342 0 0.00111625)
(0.0130038 0 0.00106419)
(0.0124977 0 0.00101111)
(0.0120164 0 0.000957726)
(0.01156 0 0.000904626)
(0.0111285 0 0.000852288)
(0.0107217 0 0.000801099)
(0.0103388 0 0.000751359)
(0.00997947 0 0.000703297)
(0.00964279 0 0.000657078)
(0.00932797 0 0.000612813)
(0.00903412 0 0.000570565)
(0.00876032 0 0.000530361)
(0.00850563 0 0.000492195)
(0.00826912 0 0.000456034)
(0.00804986 0 0.000421823)
(0.00784695 0 0.000389492)
(0.00765952 0 0.000358954)
(0.00748674 0 0.000330113)
(0.00732782 0 0.000302864)
(0.00718202 0 0.000277094)
(0.00704866 0 0.000252686)
(0.00692711 0 0.000229517)
(0.00681679 0 0.000207462)
(0.00671719 0 0.000186391)
(0.00662786 0 0.000166169)
(0.00654842 0 0.000146659)
(0.00647854 0 0.000127717)
(0.00641799 0 0.000109196)
(0.00636657 0 9.09389e-05)
(0.0063242 0 7.27815e-05)
(0.00629085 0 5.45489e-05)
(0.00626659 0 3.60544e-05)
(0.00625159 0 1.70975e-05)
(0.0062461 0 -2.53663e-06)
(0.00625052 0 -2.30878e-05)
(0.00626533 0 -4.48396e-05)
(0.00629115 0 -6.81207e-05)
(0.0063288 0 -9.33072e-05)
(0.00637925 0 -0.000120836)
(0.00644374 0 -0.000151222)
(0.00652372 0 -0.000185075)
(0.00662098 0 -0.000223132)
(0.00673767 0 -0.00026628)
(0.00687639 0 -0.000315606)
(0.0070403 0 -0.000372453)
(0.00723323 0 -0.00043849)
(0.00745988 0 -0.000515823)
(0.00772603 0 -0.000607132)
(0.00803887 0 -0.000715877)
(0.0084075 0 -0.000846606)
(0.00884355 0 -0.00100542)
(0.00936227 0 -0.00120075)
(0.00998421 0 -0.00144474)
(0.0107379 0 -0.00175587)
(0.0116645 0 -0.00216409)
(0.0128252 0 -0.00272206)
(0.0143109 0 -0.00352878)
(0.0162505 0 -0.00477492)
(0.0188205 0 -0.00682159)
(0.0222412 0 -0.0103765)
(0.0264036 0 -0.016952)
(0.0290306 0 -0.0292038)
(0.024517 0 -0.0469143)
(0.0117261 0 -0.0579893)
(-0.00501846 0 -0.0587122)
(-0.0183571 0 -0.0481873)
(-0.0229924 0 -0.0301579)
(-0.020222 0 -0.01757)
(-0.0158654 0 -0.0107557)
(-0.0122787 0 -0.00704275)
(-0.00957865 0 -0.00489864)
(-0.00754025 0 -0.00359784)
(-0.0059808 0 -0.00276273)
(-0.00476486 0 -0.00219045)
(-0.00379588 0 -0.00177445)
(-0.003009 0 -0.00145776)
(-0.00236104 0 -0.00120785)
(-0.00182266 0 -0.00100469)
(-0.00137338 0 -0.000835091)
(-0.000998677 0 -0.000689892)
(-0.000687537 0 -0.000562673)
(-0.000429671 0 -0.000449022)
(-0.000217313 0 -0.00034573)
(-0.000100347 0 -0.000251196)
(-0.000347116 0 0.00134294)
(-0.000726357 0 0.0016312)
(-0.00135691 0 0.00183125)
(-0.00201677 0 0.00194424)
(-0.00268422 0 0.00197269)
(-0.00333957 0 0.00191873)
(-0.00395667 0 0.00178429)
(-0.00450836 0 0.00157105)
(-0.00496819 0 0.00128047)
(-0.0053102 0 0.000914139)
(-0.00550905 0 0.000474226)
(-0.00554046 0 -3.60076e-05)
(-0.00538149 0 -0.000611732)
(-0.00501215 0 -0.0012446)
(-0.00441612 0 -0.00192202)
(-0.0035822 0 -0.00262693)
(-0.00250625 0 -0.00333808)
(-0.00119312 0 -0.00403079)
(0.000353606 0 -0.00467732)
(0.00209463 0 -0.00523109)
(0.00399136 0 -0.00566171)
(0.00600132 0 -0.00595454)
(0.00807596 0 -0.00610229)
(0.0101668 0 -0.00610531)
(0.0122277 0 -0.00597111)
(0.0142165 0 -0.00571306)
(0.0160965 0 -0.00534886)
(0.0178378 0 -0.00489874)
(0.0194173 0 -0.00438399)
(0.0208185 0 -0.0038256)
(0.0220315 0 -0.00324324)
(0.0230518 0 -0.00265464)
(0.0238802 0 -0.00207508)
(0.0245213 0 -0.00151726)
(0.0249833 0 -0.000991244)
(0.0252769 0 -0.000504481)
(0.0254146 0 -6.18743e-05)
(0.02541 0 0.000334439)
(0.0252781 0 0.000684456)
(0.0250334 0 0.000988911)
(0.0246903 0 0.00124915)
(0.0242628 0 0.00146711)
(0.0237643 0 0.0016452)
(0.0232075 0 0.00178618)
(0.0226043 0 0.0018931)
(0.0219655 0 0.00196913)
(0.0213011 0 0.00201752)
(0.02062 0 0.00204147)
(0.0199301 0 0.00204413)
(0.0192384 0 0.00202851)
(0.0185509 0 0.00199741)
(0.0178727 0 0.00195347)
(0.0172083 0 0.00189908)
(0.016561 0 0.00183642)
(0.0159338 0 0.00176741)
(0.015329 0 0.00169376)
(0.0147481 0 0.00161698)
(0.0141924 0 0.00153833)
(0.0136627 0 0.00145892)
(0.0131593 0 0.00137965)
(0.0126822 0 0.00130128)
(0.0122314 0 0.00122442)
(0.0118064 0 0.00114956)
(0.0114067 0 0.00107706)
(0.0110315 0 0.0010072)
(0.01068 0 0.000940163)
(0.0103514 0 0.000876074)
(0.0100447 0 0.000814989)
(0.00975897 0 0.000756916)
(0.00949323 0 0.000701819)
(0.00924652 0 0.000649628)
(0.00901787 0 0.000600248)
(0.00880637 0 0.000553557)
(0.00861114 0 0.000509417)
(0.00843132 0 0.000467676)
(0.00826612 0 0.00042817)
(0.0081148 0 0.000390726)
(0.00797667 0 0.000355161)
(0.00785111 0 0.000321289)
(0.00773755 0 0.000288915)
(0.00763549 0 0.000257839)
(0.00754451 0 0.000227852)
(0.00746425 0 0.000198741)
(0.00739443 0 0.000170281)
(0.00733484 0 0.000142237)
(0.00728536 0 0.00011436)
(0.00724596 0 8.63876e-05)
(0.0072167 0 5.80363e-05)
(0.00719773 0 2.90023e-05)
(0.00718931 0 -1.0437e-06)
(0.00719186 0 -3.24583e-05)
(0.00720587 0 -6.56599e-05)
(0.007232 0 -0.000101141)
(0.00727107 0 -0.000139464)
(0.00732412 0 -0.000181278)
(0.00739239 0 -0.000227349)
(0.00747742 0 -0.000278582)
(0.00758101 0 -0.000336063)
(0.00770539 0 -0.000401104)
(0.00785319 0 -0.000475308)
(0.00802761 0 -0.000560646)
(0.00823251 0 -0.000659578)
(0.00847258 0 -0.000775201)
(0.00875354 0 -0.000911474)
(0.00908247 0 -0.00107353)
(0.00946819 0 -0.00126817)
(0.00992186 0 -0.00150458)
(0.0104578 0 -0.00179558)
(0.0110946 0 -0.00215966)
(0.011857 0 -0.00262454)
(0.0127774 0 -0.00323353)
(0.0138983 0 -0.00405697)
(0.0152704 0 -0.00521235)
(0.0169428 0 -0.00689671)
(0.0189329 0 -0.00943305)
(0.0211433 0 -0.0133343)
(0.0230868 0 -0.0193594)
(0.0232096 0 -0.0282135)
(0.0188419 0 -0.0387233)
(0.00959144 0 -0.0456066)
(-0.00210442 0 -0.0461348)
(-0.0117596 0 -0.0397275)
(-0.0162535 0 -0.0291625)
(-0.0160969 0 -0.0201039)
(-0.0140341 0 -0.013873)
(-0.0116818 0 -0.00980538)
(-0.00955566 0 -0.00714927)
(-0.0077636 0 -0.00538546)
(-0.00629087 0 -0.00417985)
(-0.0050868 0 -0.00332485)
(-0.00409757 0 -0.00269497)
(-0.00327813 0 -0.00221433)
(-0.00259391 0 -0.00183587)
(-0.00201915 0 -0.00152932)
(-0.00153477 0 -0.00127441)
(-0.00112671 0 -0.00105715)
(-0.000783983 0 -0.000867742)
(-0.000495801 0 -0.000699483)
(-0.000253876 0 -0.000547867)
(-0.000118074 0 -0.000411065)
(-0.00037024 0 0.00184899)
(-0.00077273 0 0.00222464)
(-0.00143998 0 0.0024822)
(-0.00213412 0 0.00262359)
(-0.00283247 0 0.00265194)
(-0.00351445 0 0.00256995)
(-0.00415266 0 0.00237996)
(-0.00471861 0 0.00208394)
(-0.00518454 0 0.00168366)
(-0.00552315 0 0.00118122)
(-0.00570773 0 0.000579645)
(-0.00571264 0 -0.000116466)
(-0.00551377 0 -0.000900074)
(-0.00509021 0 -0.00175941)
(-0.00442485 0 -0.00267722)
(-0.00350616 0 -0.00363047)
(-0.00233024 0 -0.00459054)
(-0.000902114 0 -0.00552413)
(0.000775073 0 -0.00638992)
(0.00264779 0 -0.00712252)
(0.00468115 0 -0.00768875)
(0.00682648 0 -0.00806927)
(0.00903179 0 -0.008255)
(0.0112456 0 -0.00824735)
(0.0134194 0 -0.00805728)
(0.0155096 0 -0.00770347)
(0.0174793 0 -0.00721005)
(0.0192987 0 -0.00660427)
(0.0209456 0 -0.00591443)
(0.0224049 0 -0.00516818)
(0.0236678 0 -0.00439128)
(0.0247313 0 -0.0036067)
(0.0255972 0 -0.0028342)
(0.0262711 0 -0.0020901)
(0.0267616 0 -0.00138729)
(0.0270797 0 -0.000735375)
(0.0272382 0 -0.00014074)
(0.0272503 0 0.000393412)
(0.027131 0 0.000866587)
(0.0268948 0 0.00127959)
(0.026556 0 0.00163407)
(0.0261289 0 0.00193242)
(0.0256269 0 0.00217771)
(0.0250628 0 0.00237348)
(0.0244486 0 0.00252364)
(0.0237954 0 0.00263231)
(0.0231133 0 0.00270371)
(0.0224116 0 0.00274204)
(0.0216983 0 0.00275142)
(0.0209808 0 0.0027358)
(0.0202655 0 0.00269891)
(0.0195576 0 0.00264424)
(0.018862 0 0.00257499)
(0.0181824 0 0.00249406)
(0.017522 0 0.00240407)
(0.0168834 0 0.00230733)
(0.0162684 0 0.00220586)
(0.0156786 0 0.00210144)
(0.0151149 0 0.00199556)
(0.0145779 0 0.0018895)
(0.0140679 0 0.0017843)
(0.0135848 0 0.00168084)
(0.0131284 0 0.0015798)
(0.0126982 0 0.00148171)
(0.0122936 0 0.001387)
(0.0119138 0 0.00129593)
(0.0115581 0 0.0012087)
(0.0112255 0 0.00112542)
(0.0109152 0 0.00104612)
(0.010626 0 0.000970767)
(0.0103571 0 0.000899294)
(0.0101075 0 0.000831582)
(0.00987624 0 0.000767482)
(0.00966245 0 0.000706819)
(0.00946523 0 0.000649397)
(0.00928378 0 0.000595001)
(0.0091173 0 0.000543402)
(0.00896507 0 0.000494362)
(0.00882645 0 0.000447629)
(0.00870083 0 0.000402944)
(0.00858769 0 0.000360039)
(0.00848655 0 0.000318634)
(0.00839704 0 0.00027844)
(0.00831885 0 0.000239155)
(0.00825175 0 0.000200462)
(0.00819558 0 0.000162024)
(0.0081503 0 0.000123487)
(0.00811595 0 8.4469e-05)
(0.00809267 0 4.45579e-05)
(0.0080807 0 3.30816e-06)
(0.00808043 0 -3.97587e-05)
(0.00809238 0 -8.51979e-05)
(0.00811716 0 -0.000133663)
(0.0081556 0 -0.000185901)
(0.00820871 0 -0.000242771)
(0.00827771 0 -0.000305281)
(0.00836407 0 -0.000374625)
(0.00846957 0 -0.000452223)
(0.00859631 0 -0.000539788)
(0.00874683 0 -0.0006394)
(0.00892412 0 -0.000753616)
(0.0091318 0 -0.000885608)
(0.00937415 0 -0.00103936)
(0.00965637 0 -0.00121994)
(0.0099847 0 -0.00143392)
(0.0103667 0 -0.0016899)
(0.0108117 0 -0.00199947)
(0.011331 0 -0.00237853)
(0.0119382 0 -0.00284946)
(0.0126496 0 -0.00344457)
(0.0134836 0 -0.00421155)
(0.0144576 0 -0.00522185)
(0.0155814 0 -0.0065829)
(0.0168387 0 -0.00845336)
(0.018152 0 -0.0110565)
(0.0193144 0 -0.0146792)
(0.0198521 0 -0.0196154)
(0.0188146 0 -0.0258963)
(0.0149476 0 -0.032514)
(0.00819345 0 -0.0368521)
(2.43656e-05 0 -0.0372467)
(-0.0070268 0 -0.0333269)
(-0.0110062 0 -0.0267806)
(-0.0120636 0 -0.0204026)
(-0.0114656 0 -0.0153194)
(-0.0101994 0 -0.0115535)
(-0.00876638 0 -0.00883206)
(-0.00738956 0 -0.0068721)
(-0.00615468 0 -0.00544657)
(-0.00508104 0 -0.00439032)
(-0.00415941 0 -0.00358952)
(-0.00337132 0 -0.00296742)
(-0.0026975 0 -0.00247225)
(-0.00212085 0 -0.00206862)
(-0.00162728 0 -0.00173185)
(-0.00120561 0 -0.00144444)
(-0.000846559 0 -0.00119389)
(-0.000540224 0 -0.000971459)
(-0.000278965 0 -0.000771299)
(-0.0001306 0 -0.000590585)
(-0.00038382 0 0.00237882)
(-0.000800279 0 0.0028449)
(-0.00148979 0 0.00315997)
(-0.00220442 0 0.00332789)
(-0.00292067 0 0.00335288)
(-0.00361728 0 0.00323848)
(-0.00426593 0 0.00298749)
(-0.00483723 0 0.00260213)
(-0.00530242 0 0.00208446)
(-0.00563314 0 0.00143704)
(-0.00580155 0 0.000663708)
(-0.00578076 0 -0.000229554)
(-0.00554552 0 -0.00123337)
(-0.00507376 0 -0.00233242)
(-0.00434734 0 -0.00350458)
(-0.00335403 0 -0.00472046)
(-0.00208997 0 -0.00594361)
(-0.000557738 0 -0.00713175)
(0.00123147 0 -0.00822282)
(0.00322071 0 -0.009138)
(0.00537259 0 -0.00983975)
(0.00763316 0 -0.0103039)
(0.00994636 0 -0.0105201)
(0.0122573 0 -0.0104915)
(0.014515 0 -0.0102335)
(0.0166748 0 -0.00977123)
(0.0186998 0 -0.0091361)
(0.0205611 0 -0.00836316)
(0.0222384 0 -0.00748824)
(0.0237186 0 -0.00654592)
(0.0249953 0 -0.00556801)
(0.0260677 0 -0.00458261)
(0.0269395 0 -0.00361367)
(0.0276178 0 -0.0026808)
(0.0281124 0 -0.00179937)
(0.028435 0 -0.000980763)
(0.0285986 0 -0.000232593)
(0.0286165 0 0.000441118)
(0.0285032 0 0.00103942)
(0.0282729 0 0.00156311)
(0.0279398 0 0.00201408)
(0.0275177 0 0.0023952)
(0.0270198 0 0.00271015)
(0.0264588 0 0.00296324)
(0.0258463 0 0.00315921)
(0.0251932 0 0.00330308)
(0.0245095 0 0.00340001)
(0.0238042 0 0.00345516)
(0.0230856 0 0.00347358)
(0.0223608 0 0.00346013)
(0.0216361 0 0.00341943)
(0.0209172 0 0.0033558)
(0.0202088 0 0.00327323)
(0.0195149 0 0.00317535)
(0.0188388 0 0.00306543)
(0.0181832 0 0.00294641)
(0.0175503 0 0.00282087)
(0.0169417 0 0.00269104)
(0.0163586 0 0.00255885)
(0.0158017 0 0.00242596)
(0.0152715 0 0.00229374)
(0.0147682 0 0.00216331)
(0.0142916 0 0.0020356)
(0.0138413 0 0.00191133)
(0.013417 0 0.00179105)
(0.0130179 0 0.00167517)
(0.0126433 0 0.00156395)
(0.0122924 0 0.00145758)
(0.0119643 0 0.00135612)
(0.0116581 0 0.00125956)
(0.0113728 0 0.00116783)
(0.0111075 0 0.00108082)
(0.0108614 0 0.000998336)
(0.0106334 0 0.000920187)
(0.0104228 0 0.000846134)
(0.0102286 0 0.000775915)
(0.0100502 0 0.000709252)
(0.00988675 0 0.000645847)
(0.00973762 0 0.000585389)
(0.0096022 0 0.000527555)
(0.00947992 0 0.000472007)
(0.00937033 0 0.000418395)
(0.00927299 0 0.000366356)
(0.0091876 0 0.000315507)
(0.00911388 0 0.00026545)
(0.00905168 0 0.000215761)
(0.00900092 0 0.000165991)
(0.0089616 0 0.00011566)
(0.00893386 0 6.42474e-05)
(0.0089179 0 1.11946e-05)
(0.00891406 0 -4.41017e-05)
(0.00892284 0 -0.000102331)
(0.00894482 0 -0.000164301)
(0.00898076 0 -0.000230928)
(0.0090316 0 -0.000303273)
(0.00909845 0 -0.00038257)
(0.00918269 0 -0.000470272)
(0.00928593 0 -0.000568101)
(0.00941007 0 -0.000678122)
(0.00955736 0 -0.000802829)
(0.00973045 0 -0.000945266)
(0.00993242 0 -0.00110919)
(0.0101669 0 -0.00129926)
(0.0104381 0 -0.00152139)
(0.010751 0 -0.00178312)
(0.0111113 0 -0.00209422)
(0.0115254 0 -0.00246758)
(0.0120005 0 -0.00292042)
(0.0125441 0 -0.00347619)
(0.0131633 0 -0.00416714)
(0.013862 0 -0.00503804)
(0.0146371 0 -0.00615088)
(0.0154692 0 -0.00759006)
(0.0163063 0 -0.00946564)
(0.0170374 0 -0.0119088)
(0.0174522 0 -0.0150483)
(0.0171874 0 -0.0189437)
(0.0156886 0 -0.0234194)
(0.012387 0 -0.027747)
(0.00736465 0 -0.0305376)
(0.00153814 0 -0.0308342)
(-0.00369997 0 -0.0284102)
(-0.00709728 0 -0.0242203)
(-0.00863895 0 -0.0197289)
(-0.00888244 0 -0.0157471)
(-0.00839869 0 -0.0125005)
(-0.00757143 0 -0.00995505)
(-0.00662637 0 -0.00799256)
(-0.0056848 0 -0.00648381)
(-0.00480451 0 -0.00531637)
(-0.00400777 0 -0.00440186)
(-0.00329889 0 -0.00367416)
(-0.00267398 0 -0.0030848)
(-0.00212607 0 -0.0025984)
(-0.00164761 0 -0.00218902)
(-0.00123176 0 -0.00183753)
(-0.000872102 0 -0.00152982)
(-0.000560642 0 -0.00125566)
(-0.000291249 0 -0.00100799)
(-0.000136939 0 -0.00078272)
(-0.000389252 0 0.00292174)
(-0.000811562 0 0.00348005)
(-0.00151061 0 0.00385255)
(-0.00223369 0 0.00404564)
(-0.0029568 0 0.004065)
(-0.00365823 0 0.00391509)
(-0.00430911 0 0.00359924)
(-0.00487943 0 0.0031199)
(-0.00533972 0 0.00247927)
(-0.00566071 0 0.00168025)
(-0.0058135 0 0.00072739)
(-0.00576992 0 -0.000372023)
(-0.00550344 0 -0.0016063)
(-0.00499049 0 -0.00295658)
(-0.00421142 0 -0.00439578)
(-0.00315287 0 -0.00588777)
(-0.00181075 0 -0.00738756)
(-0.000183647 0 -0.00884258)
(0.0017051 0 -0.0101646)
(0.00380024 0 -0.0112655)
(0.00605833 0 -0.0121012)
(0.00842019 0 -0.0126428)
(0.0108249 0 -0.012879)
(0.0132134 0 -0.0128159)
(0.015532 0 -0.0124745)
(0.017735 0 -0.0118878)
(0.0197857 0 -0.0110957)
(0.0216571 0 -0.0101422)
(0.0233314 0 -0.00907111)
(0.0247984 0 -0.00792432)
(0.0260552 0 -0.00673969)
(0.0271038 0 -0.00555028)
(0.0279508 0 -0.00438381)
(0.0286054 0 -0.00326271)
(0.0290791 0 -0.00220437)
(0.0293847 0 -0.00122146)
(0.0295359 0 -0.000322374)
(0.0295458 0 0.000488457)
(0.0294286 0 0.00120982)
(0.0291984 0 0.00184251)
(0.0288686 0 0.0023887)
(0.0284526 0 0.00285174)
(0.0279631 0 0.00323593)
(0.027412 0 0.00354633)
(0.0268105 0 0.00378851)
(0.0261688 0 0.00396836)
(0.0254965 0 0.00409192)
(0.0248021 0 0.00416522)
(0.0240934 0 0.0041942)
(0.0233774 0 0.00418458)
(0.0226601 0 0.00414179)
(0.021947 0 0.00407094)
(0.0212427 0 0.00397675)
(0.0205512 0 0.00386353)
(0.0198758 0 0.00373522)
(0.0192193 0 0.0035953)
(0.0185839 0 0.00344689)
(0.0179715 0 0.00329272)
(0.0173832 0 0.00313512)
(0.01682 0 0.00297613)
(0.0162825 0 0.00281744)
(0.015771 0 0.00266046)
(0.0152856 0 0.00250634)
(0.0148259 0 0.00235601)
(0.0143918 0 0.00221017)
(0.0139826 0 0.00206937)
(0.0135977 0 0.00193398)
(0.0132364 0 0.00180423)
(0.0128979 0 0.00168026)
(0.0125813 0 0.00156209)
(0.0122859 0 0.00144966)
(0.0120107 0 0.00134284)
(0.0117549 0 0.00124147)
(0.0115175 0 0.00114529)
(0.0112978 0 0.00105406)
(0.0110949 0 0.000967457)
(0.0109081 0 0.000885166)
(0.0107366 0 0.000806836)
(0.0105799 0 0.0007321)
(0.0104372 0 0.00066057)
(0.0103081 0 0.000591847)
(0.010192 0 0.00052551)
(0.0100885 0 0.000461123)
(0.00999735 0 0.000398228)
(0.00991818 0 0.000336346)
(0.00985083 0 0.000274968)
(0.0097952 0 0.000213555)
(0.00975127 0 0.00015153)
(0.00971913 0 8.82716e-05)
(0.00969895 0 2.31084e-05)
(0.00969101 0 -4.46815e-05)
(0.00969577 0 -0.000115914)
(0.00971372 0 -0.000191532)
(0.00974554 0 -0.00027261)
(0.00979205 0 -0.000360384)
(0.00985423 0 -0.000456284)
(0.00993327 0 -0.000561985)
(0.0100305 0 -0.000679459)
(0.0101477 0 -0.000811053)
(0.0102865 0 -0.000959578)
(0.0104491 0 -0.00112844)
(0.0106381 0 -0.00132178)
(0.010856 0 -0.00154473)
(0.0111061 0 -0.00180365)
(0.0113915 0 -0.00210654)
(0.0117158 0 -0.00246359)
(0.0120824 0 -0.00288786)
(0.0124943 0 -0.0033963)
(0.0129531 0 -0.00401104)
(0.0134576 0 -0.004761)
(0.014001 0 -0.00568386)
(0.0145664 0 -0.00682774)
(0.0151189 0 -0.00825185)
(0.015594 0 -0.0100235)
(0.0158817 0 -0.0122074)
(0.0158082 0 -0.0148399)
(0.0151227 0 -0.0178784)
(0.0135142 0 -0.0211109)
(0.0107377 0 -0.0240354)
(0.00691439 0 -0.025884)
(0.00262329 0 -0.0261091)
(-0.00134183 0 -0.0245884)
(-0.00420582 0 -0.0218326)
(-0.00586326 0 -0.0186412)
(-0.00655046 0 -0.0155685)
(-0.00658199 0 -0.012867)
(-0.00622128 0 -0.0106043)
(-0.00565453 0 -0.008757)
(-0.00500145 0 -0.00726615)
(-0.00433321 0 -0.00606522)
(-0.00368893 0 -0.00509337)
(-0.00308809 0 -0.00429982)
(-0.00253884 0 -0.00364398)
(-0.00204315 0 -0.00309415)
(-0.00159995 0 -0.00262574)
(-0.00120701 0 -0.00221979)
(-0.000861263 0 -0.00186168)
(-0.00055724 0 -0.00154039)
(-0.000290817 0 -0.00124796)
(-0.000137153 0 -0.000978996)
(-0.00038787 0 0.0034673)
(-0.00080896 0 0.00411851)
(-0.00150637 0 0.00454827)
(-0.00222733 0 0.00476574)
(-0.00294781 0 0.00477824)
(-0.00364593 0 0.00459126)
(-0.00429262 0 0.00420856)
(-0.00485754 0 0.0036327)
(-0.00531069 0 0.00286585)
(-0.00562201 0 0.00191102)
(-0.00576154 0 0.000773253)
(-0.00569966 0 -0.000539062)
(-0.00540831 0 -0.00201211)
(-0.00486198 0 -0.00362364)
(-0.00403896 0 -0.00534157)
(-0.00292418 0 -0.00712269)
(-0.00151281 0 -0.00891253)
(0.000201147 0 -0.0106463)
(0.00218088 0 -0.0122051)
(0.00437442 0 -0.0134943)
(0.00673051 0 -0.0144612)
(0.00918395 0 -0.0150719)
(0.0116678 0 -0.0153148)
(0.0141182 0 -0.0152001)
(0.0164783 0 -0.0147564)
(0.0187012 0 -0.0140258)
(0.0207513 0 -0.0130589)
(0.0226038 0 -0.0119092)
(0.0242442 0 -0.0106298)
(0.0256666 0 -0.00926984)
(0.0268719 0 -0.00787342)
(0.0278661 0 -0.00647819)
(0.0286592 0 -0.0051152)
(0.0292633 0 -0.00380914)
(0.0296919 0 -0.00257876)
(0.0299594 0 -0.00143742)
(0.0300802 0 -0.000393744)
(0.0300678 0 0.000547975)
(0.0299359 0 0.00138657)
(0.0296982 0 0.00212292)
(0.0293677 0 0.00275958)
(0.0289569 0 0.00330045)
(0.0284777 0 0.00375055)
(0.0279411 0 0.00411568)
(0.0273574 0 0.00440222)
(0.0267361 0 0.00461689)
(0.0260858 0 0.00476655)
(0.0254143 0 0.00485807)
(0.0247289 0 0.00489816)
(0.0240357 0 0.00489331)
(0.0233405 0 0.00484971)
(0.0226483 0 0.00477314)
(0.0219634 0 0.00466898)
(0.0212896 0 0.00454219)
(0.0206302 0 0.00439726)
(0.0199877 0 0.00423822)
(0.0193646 0 0.00406868)
(0.0187624 0 0.00389178)
(0.0181826 0 0.0037103)
(0.0176262 0 0.0035266)
(0.0170939 0 0.00334269)
(0.0165862 0 0.00316026)
(0.0161031 0 0.0029807)
(0.0156447 0 0.00280514)
(0.0152106 0 0.00263444)
(0.0148006 0 0.00246929)
(0.0144141 0 0.00231016)
(0.0140506 0 0.00215739)
(0.0137092 0 0.00201115)
(0.0133894 0 0.00187153)
(0.0130903 0 0.00173848)
(0.0128111 0 0.00161189)
(0.012551 0 0.00149157)
(0.0123093 0 0.00137729)
(0.0120851 0 0.00126875)
(0.0118777 0 0.0011656)
(0.0116864 0 0.0010675)
(0.0115104 0 0.000974047)
(0.0113492 0 0.000884816)
(0.0112021 0 0.000799369)
(0.0110686 0 0.000717245)
(0.0109483 0 0.000637961)
(0.0108406 0 0.000561013)
(0.0107453 0 0.00048587)
(0.010662 0 0.000411979)
(0.0105906 0 0.000338751)
(0.010531 0 0.000265563)
(0.010483 0 0.000191748)
(0.0104468 0 0.000116589)
(0.0104224 0 3.93138e-05)
(0.0104101 0 -4.09114e-05)
(0.0104102 0 -0.000125013)
(0.0104232 0 -0.000214051)
(0.0104496 0 -0.000309233)
(0.0104901 0 -0.000411941)
(0.0105455 0 -0.000523763)
(0.0106167 0 -0.000646546)
(0.0107049 0 -0.000782448)
(0.0108113 0 -0.000934014)
(0.0109373 0 -0.00110426)
(0.0110844 0 -0.00129681)
(0.0112544 0 -0.00151601)
(0.011449 0 -0.00176715)
(0.0116701 0 -0.00205671)
(0.0119192 0 -0.00239268)
(0.0121977 0 -0.00278494)
(0.0125063 0 -0.00324585)
(0.0128442 0 -0.00379087)
(0.0132083 0 -0.00443927)
(0.0135915 0 -0.00521496)
(0.0139801 0 -0.006147)
(0.0143499 0 -0.00726944)
(0.0146611 0 -0.00861954)
(0.0148504 0 -0.0102325)
(0.014824 0 -0.0121304)
(0.0144516 0 -0.0143017)
(0.0135704 0 -0.0166687)
(0.0120119 0 -0.0190428)