/*--------------------------------*- C++ -*----------------------------------*\
  =========                 |
  \\      /  F ield         | OpenFOAM: The Open Source CFD Toolbox
   \\    /   O peration     | Website:  https://openfoam.org
    \\  /    A nd           | Version:  13
     \\/     M anipulation  |
\*---------------------------------------------------------------------------*/
FoamFile
{
    format      ascii;
    class       volScalarField;
    location    "39.831886";
    object      T;
}
// * * * * * * * * * * * * * * * * * * * * * * * * * * * * * * * * * * * * * //

dimensions      [0 0 0 1 0 0 0];

internalField   nonuniform List<scalar> 
5712
(
675.255
674.843
674.157
673.527
672.524
671.887
670.278
669.763
670.747
670.141
672.513
671.899
673.808
673.227
674.788
674.347
672.001
671.168
670.916
669.773
669.271
668.208
668.276
666.934
676.673
679.023
676.234
678.433
675.633
677.881
674.951
677.078
673.277
674.529
672.116
673.698
676.477
675.145
669.579
667.603
668.467
667.003
667.096
665.434
665.785
664.532
671.931
669.871
670.722
669.17
673.82
671.82
681.724
683.357
680.611
682.311
680.568
682.616
679.258
681.144
678.884
681.647
676.856
679.421
675.294
677.828
673.513
676.085
671.352
670.979
669.631
669.446
667.73
667.259
666.367
665.897
672.796
673.262
674.827
674.9
668.182
668.181
666.877
667.136
665.142
664.757
663.995
663.789
671.143
671.912
669.684
670.826
675.923
679.01
677.083
680.559
678.118
681.286
678.801
682.417
674.12
677.118
675.678
679.081
672.532
675.481
674.576
677.923
685.578
689.132
686.169
689.694
684.498
687.806
685.577
688.939
682.681
685.218
684.573
687.337
673.801
669.505
677.717
680.678
683.927
670.121
674.668
679.347
682.51
686.02
668.985
673.025
676.958
680.709
684.426
692.425
694.051
694.221
695.66
690.75
692.618
693.087
694.64
687.84
689.933
691.145
692.997
671.128
672.792
676.103
678.384
680.709
683.086
684.395
686.751
689.333
691.702
669.722
671.055
674.256
676.617
678.533
681.239
682.822
685.76
688.286
691.396
672.13
674.787
670.237
672.591
667.683
668.446
665.998
666.428
674.768
677.917
676.623
679.97
668.639
670.999
667.614
669.869
664.651
665.06
663.69
664
673.087
676.292
672.048
675.18
679.967
683.802
686.467
691.142
681.466
685.494
687.467
692.058
678.59
682.302
685.511
690.109
677.294
681.042
684.139
688.491
694.576
695.34
696.761
694.882
695.222
696.524
693.497
694.431
695.934
694.065
694.475
695.874
691.278
692.492
694.16
692.831
693.435
695.001
674.847
677.217
679.777
680.831
682.925
685.213
685.363
687.185
689.222
688.615
690.158
692.116
691.868
692.696
694.527
672.954
675.607
678.499
679.794
682.592
685.488
684.479
686.97
689.588
688.289
690.183
692.518
691.856
692.923
695.033
664.448
663.594
663.707
662.615
666.62
665.563
665.765
664.464
664.058
662.356
663.851
662.271
663.549
662.036
663.188
661.774
661.995
662.701
661.528
662.36
661.706
661.127
661.782
660.817
663.449
662.371
661.518
660.595
660.852
659.98
660.786
659.886
660.642
659.143
660.933
659.532
660.413
658.873
660.49
659.075
660.188
658.516
659.798
658.282
659.503
658.181
658.741
657.665
662.472
661.731
661.517
660.69
664.743
664.095
663.618
662.919
660.061
659.083
660.894
659.992
660.59
659.797
659.672
659.015
662.561
661.914
661.543
661.038
659.249
658.297
658.413
657.606
658.846
657.554
658.038
657.291
659.513
658.118
658.829
657.951
658.188
657.057
657.35
656.724
657.464
656.525
656.748
656.237
660.712
661.453
659.298
660.066
660.678
661.462
659.186
659.984
660.623
661.329
659.006
659.721
663.179
665.879
661.5
660.178
658.783
666.44
663.766
662.201
660.899
659.415
665.353
662.724
660.852
659.602
658.608
662.736
664.509
661.362
663.079
662.624
664.315
661.147
662.794
662.343
663.939
660.735
662.267
667.172
668.544
664.331
665.722
662.724
664.148
661.496
662.944
660.098
661.541
665.799
666.595
663.102
663.903
661.283
662.238
660.126
661.298
659.263
660.714
661.558
661.835
660.493
660.476
664.002
664.202
662.721
662.542
659.074
659.427
659.989
660.586
659.681
659.442
658.911
658.598
661.734
661.342
660.864
660.382
658.346
658.503
657.659
657.751
658.217
658.961
657.858
659.028
659.049
660.008
658.505
659.837
657.542
658.106
657.305
658.327
656.979
657.474
656.812
657.704
666.928
669.35
671.659
666.047
668.779
671.093
666.586
669.037
671.397
665.638
668.387
670.8
666.069
668.472
670.868
664.976
667.852
670.426
670.408
672.753
675.318
667.619
670.038
672.645
666.073
668.59
671.236
664.98
667.487
670.042
664.257
667.279
670.083
668.076
670.611
673.511
665.45
668.023
670.922
664.002
666.721
669.699
663.368
666.226
669.227
663.551
666.717
669.798
658.559
659.635
662.391
667.454
659.017
660.168
663.019
668.132
658.363
659.481
662.247
667.359
658.661
659.886
662.763
667.891
658.104
659.285
661.937
666.897
658.004
659.321
662.149
667.216
658.097
659.557
662.586
667.779
657.822
659.448
662.597
667.824
657.505
658.907
661.671
666.689
657.59
659.094
661.629
666.145
657.926
659.192
661.694
666.353
658.063
659.424
661.783
666.039
657.167
658.704
661.682
666.885
657.181
658.81
661.491
666.113
656.822
658.492
661.572
666.747
656.827
658.565
661.324
665.925
658.633
659.597
662.106
666.872
659.265
660.089
662.237
666.403
658.578
659.573
662.049
666.785
659.237
660.099
662.235
666.365
658.498
659.555
661.953
666.552
659.103
660.053
662.195
666.275
658.475
659.614
661.896
666.226
658.977
660.022
662.14
666.107
658.536
659.766
661.947
665.915
660.246
660.948
662.889
665.874
661.354
661.98
663.97
666.781
660.123
660.882
662.838
665.817
661.225
661.918
663.933
666.755
659.9
660.766
662.77
665.769
661.001
661.812
663.878
666.707
659.578
660.591
662.638
665.653
660.697
661.658
663.787
666.639
659.162
660.361
662.48
665.525
660.342
661.482
663.691
666.573
658.376
659.92
662.271
665.43
659.437
660.964
663.367
666.354
658.761
660.141
662.381
665.486
659.886
661.224
663.53
666.459
658.033
659.715
662.17
665.384
659.028
660.722
663.221
666.239
657.706
659.504
662.028
665.269
658.656
660.488
663.068
666.117
675.217
681.526
686.949
691.414
694.913
675.619
681.861
687.272
691.734
695.232
675.173
681.503
686.935
691.403
694.903
675.55
681.815
687.236
691.703
695.203
675.087
681.465
686.909
691.383
694.885
675.263
681.565
686.999
691.472
694.975
675.427
681.738
687.18
691.659
695.164
675.338
681.671
687.13
691.617
695.127
675.033
681.434
686.89
691.369
694.874
675.368
681.918
687.398
691.881
695.385
675.106
681.551
687.009
691.486
694.989
675.47
682.028
687.504
691.984
695.487
675.03
681.437
686.901
691.385
694.892
675.407
681.972
687.46
691.948
695.454
674.937
681.374
686.853
691.347
694.857
675.388
681.983
687.484
691.979
695.488
675.265
681.68
687.119
691.586
695.084
675.744
682.26
687.71
692.175
695.672
675.256
681.691
687.137
691.606
695.105
675.733
682.261
687.716
692.183
695.681
675.268
681.743
687.199
691.672
695.172
675.74
682.29
687.751
692.221
695.72
675.412
681.953
687.422
691.899
695.401
675.824
682.393
687.861
692.335
695.835
675.701
682.267
687.741
692.218
695.718
701.92
702.974
701.456
702.531
700.611
701.804
699.542
700.935
698.483
700.091
696.825
698.682
697.673
699.488
695.989
697.78
695.118
696.75
713.486
726.372
737.426
746.243
752.492
713.31
726.289
737.469
746.346
752.698
713.276
726.261
737.356
746.191
752.446
713.122
726.209
737.4
746.329
752.667
712.854
726.024
737.199
746.073
752.344
712.715
725.981
737.25
746.216
752.57
712.286
725.684
736.969
745.9
752.196
712.196
725.671
737.041
746.059
752.437
711.626
725.254
736.67
745.673
752.001
711.636
725.306
736.786
745.863
752.266
710.204
724.193
735.868
745.031
751.424
710.356
724.358
736.072
745.283
751.732
710.917
724.738
736.289
745.375
751.737
711.031
724.871
736.469
745.613
752.038
709.49
723.634
735.428
744.667
751.093
709.594
723.76
735.597
744.887
751.368
708.76
723.055
734.967
744.286
750.751
708.76
723.121
735.076
744.455
750.99
661.947
663.479
664.836
663.08
665.451
665.204
665.117
664.783
665.617
665.163
667.691
667.158
668.804
668.198
667.245
666.738
666.644
666.293
666.537
666.264
663.112
662.721
667.368
669.248
669.877
670.04
668.31
667.431
669.606
667.068
671.505
674.384
667.582
668.38
670.599
668.183
669.163
669.352
665.637
665.488
666.688
666.267
665.714
665.262
665.786
666.478
668.944
668.469
667.568
667.104
663.844
663.264
664.272
663.804
664.503
664.664
665.945
667.578
665.909
660.29
658.865
658.275
658.377
659.193
660.625
659.436
658.928
659.154
660.199
665.933
665.271
665.213
665.797
667.052
667.859
667.251
667.248
667.875
669.153
668.468
667.834
667.803
668.408
669.674
668.652
668.045
668.042
668.669
669.947
666.888
666.241
666.198
666.793
668.054
664.331
662.476
661.517
661.346
661.941
666.295
664.287
663.267
663.09
663.778
664.859
663.458
662.729
662.798
663.765
668.432
666.496
665.551
665.462
666.308
671.369
669.375
668.412
668.315
669.166
665.825
664.814
664.424
664.75
665.867
666.337
665.064
664.447
664.607
665.633
668.612
667.381
666.799
666.987
668.029
666.542
665.648
665.363
665.769
666.929
667.42
666.42
666.038
666.373
667.494
667.739
666.872
666.612
667.037
668.205
662.806
661.231
660.45
660.401
661.111
663.539
662.364
661.825
662.03
663.072
665.022
664.102
663.793
664.18
665.329
664.676
663.837
663.605
664.051
665.232
663.999
663.036
662.688
663.043
664.172
663.642
662.777
662.519
662.946
664.115
664.273
663.523
663.38
663.895
665.115
664.973
664.231
664.092
664.611
665.832
667.449
666.713
666.58
667.103
668.325
667.015
666.329
666.246
666.809
668.052
666.002
665.19
664.982
665.447
666.638
665.587
664.83
664.676
665.183
666.397
661.103
659.638
658.994
659.053
659.823
661.295
660.168
659.699
659.955
661.022
661.997
660.691
660.066
660.169
661.052
662.046
661.06
660.697
661.039
662.16
662.838
661.93
661.635
662.031
663.183
662.758
661.63
661.128
661.358
662.413
664.418
663.652
663.491
663.994
665.205
666.12
665.431
665.345
665.906
667.149
664.34
663.527
663.32
663.785
664.977
662.9
663.767
662.965
663.923
660.853
661.853
660.819
661.706
663.037
663.144
663.953
663.756
660.875
660.923
661.789
661.508
665.07
667.208
665.851
667.907
665.076
667.013
665.991
667.893
666.017
665.212
665.554
665.028
666.716
667.528
665.079
666.03
664.631
665.684
662.983
663.985
662.37
663.347
667.109
668.137
666.469
667.655
668.668
669.917
669.182
670.909
669.789
671.435
669.035
671.089
669.82
671.64
668.674
671.457
669.201
671.673
670.257
672.791
671.701
674.293
663.81
664.359
664.236
664.861
661.112
661.291
661.565
661.722
666.814
668.396
666.433
667.869
664.925
665.471
665.815
666.233
662.233
662.279
663.05
662.96
667.517
669.035
668.492
669.869
669.512
672.593
672.089
675.588
669.26
672.58
671.638
675.326
670.194
673.144
672.714
676.116
671.233
674.147
673.588
676.933
669.325
670.337
671.248
672.846
669.164
669.995
671.529
673.063
668.866
669.315
672.035
673.303
663.711
660.923
666.457
669.423
673.233
660.837
663.486
666.23
669.354
673.899
661.068
664.068
667.544
671.373
675.363
671.987
672.739
677.068
678.568
671.217
671.971
676.76
678.259
670.073
670.697
676.387
677.898
660.9
661.307
663.729
664.219
666.704
667.204
670.317
670.96
676.864
678.484
661.086
661.508
664.391
665.393
668.177
669.457
672.602
674.144
678.628
680.601
665.167
666.898
665.613
667.386
661.398
661.573
661.775
661.849
669.898
672.456
669.342
671.765
665.992
668.026
666.746
668.917
662.227
662.41
662.892
663.144
670.29
673.16
671.132
674.177
675.067
678.397
681.711
685.951
674.211
677.438
680.517
684.48
675.718
679.169
682.719
687.094
676.324
680.007
683.25
687.549
673.034
673.694
677.607
677.716
672.289
673.02
677.413
677.461
671.19
672.242
677.22
677.326
662.143
663.622
665.131
666.532
668.008
669.23
671.62
672.777
677.581
677.61
662.349
663.945
666.768
668.25
670.681
671.806
674.655
675.185
678.795
678.531
657.495
657.428
658.379
657.994
658.99
658.926
659.922
659.519
656.463
655.727
657.303
656.538
656.484
655.8
657.394
656.654
657.234
656.464
657.109
656.539
655.951
656.682
658.812
659.785
660.329
661.282
658.305
659.409
657.95
658.935
657.721
658.73
655.296
655.039
656.084
655.782
655.297
654.972
656.125
655.726
655.342
654.887
655.959
655.411
656.891
656.239
657.784
656.958
657.162
657.103
657.568
657.384
658.863
658.833
659.298
659.191
656.425
656.177
656.057
655.954
658.164
657.809
658.875
658.347
659.928
659.686
660.685
660.29
656.988
656.541
657.66
657.016
655.621
655.096
655.502
655.246
655.291
654.884
655.323
655.128
656.153
655.498
655.812
655.48
656.78
655.993
656.23
655.817
654.954
655.09
654.751
654.976
655.016
655.165
654.758
655.004
655.16
655.284
654.803
655.025
657.012
658.683
655.933
655.227
654.916
658.701
657.099
656.041
655.342
655.073
658.652
656.992
655.89
655.292
655.14
655.653
656.635
655.647
656.702
655.644
656.563
655.594
656.605
655.649
656.467
655.514
656.442
658.716
659.11
657.116
657.6
656.153
656.756
655.562
656.264
655.449
656.292
658.561
658.727
656.932
657.166
655.927
656.34
655.447
656.075
655.463
656.306
656.872
656.819
657.199
656.968
658.576
658.375
658.972
658.554
656.162
656.272
655.898
656.149
657.724
657.359
658.26
657.916
659.543
658.994
660.14
659.618
656.601
656.62
657.079
657.133
655.676
656.151
655.764
656.587
655.478
656.069
655.574
656.453
656.004
656.431
656.044
656.875
656.447
656.903
656.394
657.236
657.838
658.97
658.241
659.575
657.683
658.897
658.119
659.53
657.537
658.878
657.929
659.564
659.939
661.421
658.511
660.022
657.714
659.235
657.319
658.882
657.787
659.713
659.406
661.111
657.96
659.738
657.331
659.188
657.301
659.238
657.961
660.141
655.74
657.748
661.109
666.588
656.426
658.43
661.832
667.324
655.692
657.69
661.04
666.559
656.348
658.33
661.702
667.176
655.653
657.638
660.822
666.164
656.06
658.011
661.245
666.604
656.791
658.675
661.977
667.363
657.348
659.126
662.375
667.67
655.826
657.769
660.877
666.135
656.159
658.121
660.935
665.629
655.727
657.709
660.672
665.659
656.098
658.096
660.86
665.388
656.097
657.977
661.168
666.514
656.304
658.211
661.055
665.773
656.453
658.241
661.394
666.618
656.53
658.362
661.175
665.807
655.517
657.523
660.699
665.916
655.833
657.831
660.706
665.34
655.558
657.56
660.689
665.873
655.899
657.899
660.748
665.34
655.66
657.659
660.673
665.705
655.98
657.985
660.8
665.324
655.863
657.866
660.71
665.438
656.096
658.107
660.849
665.238
656.151
658.165
660.852
665.161
656.572
658.566
661.281
664.655
657.543
659.54
662.308
665.472
656.567
658.567
661.273
664.634
657.541
659.548
662.315
665.48
656.578
658.589
661.3
664.666
657.556
659.578
662.349
665.499
656.594
658.62
661.303
664.658
657.572
659.614
662.381
665.526
656.634
658.675
661.32
664.647
657.614
659.683
662.441
665.577
656.92
658.935
661.567
664.862
657.803
659.867
662.592
665.727
656.749
658.789
661.435
664.75
657.67
659.749
662.495
665.627
657.146
659.113
661.733
665.02
658.033
660.05
662.745
665.851
657.409
659.303
661.881
665.145
658.328
660.266
662.91
665.988
674.7
681.207
686.749
691.279
694.807
675.125
681.554
687.078
691.604
695.13
674.701
681.213
686.752
691.28
694.807
675.118
681.547
687.067
691.589
695.114
674.67
681.209
686.749
691.275
694.8
674.904
681.343
686.859
691.378
694.901
675.177
681.582
687.083
691.593
695.112
675.243
681.612
687.092
691.592
695.107
674.71
681.236
686.765
691.285
694.808
675.081
681.745
687.289
691.808
695.328
674.725
681.318
686.863
691.388
694.912
675.128
681.821
687.375
691.897
695.418
674.807
681.299
686.814
691.326
694.846
675.211
681.853
687.385
691.897
695.414
674.859
681.326
686.823
691.326
694.841
675.32
681.941
687.458
691.961
695.474
674.723
681.35
686.913
691.447
694.975
675.185
681.923
687.499
692.034
695.561
674.747
681.382
686.943
691.476
695.003
675.199
681.94
687.515
692.048
695.575
674.809
681.465
687.025
691.554
695.08
675.252
681.997
687.568
692.098
695.623
675.003
681.707
687.268
691.795
695.319
675.393
682.134
687.699
692.226
695.75
675.323
682.04
687.598
692.122
695.643
687.933
689.134
688.096
689.324
688.471
689.733
689.069
690.308
690.031
691.107
692.485
693.885
691.387
692.606
693.426
694.967
694.276
695.837
703.196
718.949
731.842
741.774
748.56
702.86
718.777
731.839
741.847
748.752
703.348
719.057
731.921
741.835
748.611
703.059
718.932
731.925
741.951
748.822
703.657
719.274
732.077
741.955
748.713
703.36
719.139
732.072
742.063
748.918
704.138
719.607
732.318
742.144
748.878
703.804
719.442
732.29
742.233
749.066
704.823
720.074
732.662
742.419
749.12
704.376
719.827
732.571
742.457
749.263
706.463
721.228
733.525
743.108
749.715
706.174
721.06
733.477
743.164
749.855
705.632
720.62
733.066
742.742
749.402
705.2
720.368
732.966
742.766
749.524
707.251
721.839
734
743.491
750.046
707.1
721.763
734.012
743.586
750.213
708.019
722.458
734.491
743.893
750.4
707.947
722.465
734.551
744.023
750.606
660.694
662.14
661.082
659.574
657.538
658.398
657.519
658.496
659.015
660.03
659.015
659.892
676.246
675.967
675.28
674.196
672.736
670.98
676.37
676.103
675.45
674.433
673.099
671.535
676.956
678.025
676.64
677.665
675.87
676.792
674.637
675.37
672.99
673.554
671.079
671.683
669.102
667.327
665.81
664.567
663.643
662.978
669.871
668.261
666.82
665.614
664.685
664.041
674.936
674.419
674.51
675.211
676.526
674.654
674.134
674.222
674.921
676.235
673.963
673.438
673.52
674.214
675.526
672.87
672.335
672.407
673.094
674.403
671.396
670.846
670.903
671.577
672.88
669.62
669.046
669.079
669.734
671.027
675.059
674.54
674.63
675.329
676.643
674.789
674.268
674.354
675.051
676.364
674.131
673.603
673.683
674.375
675.685
673.105
672.567
672.636
673.32
674.627
671.757
671.204
671.257
671.928
673.229
670.173
669.596
669.625
670.278
671.569
675.647
675.132
675.224
675.925
677.24
676.718
676.204
676.296
676.997
678.311
675.329
674.811
674.9
675.599
676.913
676.355
675.838
675.927
676.626
677.939
674.554
674.03
674.113
674.808
676.12
675.477
674.953
675.037
675.731
677.042
673.312
672.779
672.852
673.539
674.848
674.045
673.511
673.583
674.268
675.575
671.651
671.101
671.158
671.832
673.135
672.212
671.659
671.713
672.384
673.684
669.718
669.144
669.175
669.83
671.122
670.319
669.74
669.766
670.416
671.706
667.71
667.1
667.095
667.72
668.998
665.891
665.228
665.17
665.754
667.01
664.308
663.571
663.441
663.968
665.194
662.971
662.138
661.917
662.372
663.559
661.936
661.006
660.701
661.092
662.241
661.197
660.211
659.864
660.222
661.353
668.481
667.87
667.866
668.491
669.769
666.831
666.176
666.127
666.716
667.975
665.34
664.628
664.522
665.067
666.303
664.074
663.298
663.13
663.628
664.838
663.087
662.254
662.034
662.491
663.679
662.409
661.545
661.299
661.737
662.914
676.115
675.573
674.624
673.274
671.545
669.513
676.239
675.712
674.799
673.525
671.941
670.144
676.819
677.882
676.231
677.234
675.185
676.071
673.672
674.35
671.742
672.238
669.513
669.997
667.377
665.431
663.885
662.859
662.446
662.544
668.295
666.59
665.196
664.229
663.744
663.706
674.805
674.289
674.381
675.082
676.398
674.262
673.744
673.835
674.535
675.851
673.309
672.787
672.874
673.572
674.887
671.952
671.424
671.504
672.198
673.511
670.213
669.674
669.743
670.428
671.738
668.166
667.609
667.66
668.332
669.635
674.929
674.411
674.501
675.201
676.516
674.4
673.881
673.969
674.669
675.983
673.483
672.96
673.044
673.74
675.054
672.201
671.671
671.748
672.439
673.75
670.606
670.064
670.129
670.811
672.119
668.794
668.233
668.28
668.948
670.249
675.511
674.997
675.089
675.791
677.106
676.575
676.062
676.155
676.856
678.171
674.921
674.405
674.496
675.197
676.512
675.926
675.411
675.502
676.203
677.518
673.872
673.352
673.439
674.138
675.453
674.759
674.239
674.327
675.025
676.339
672.352
671.825
671.906
672.6
673.913
673.03
672.503
672.583
673.276
674.589
670.411
669.873
669.943
670.628
671.938
670.907
670.367
670.435
671.12
672.428
668.167
667.611
667.664
668.337
669.641
668.65
668.093
668.144
668.816
670.119
666.006
665.421
665.444
666.094
667.387
664.023
663.396
663.378
663.995
665.271
662.42
661.732
661.652
662.221
663.471
661.305
660.526
660.36
660.862
662.076
660.776
659.891
659.632
660.061
661.234
660.778
659.811
659.482
659.855
660.995
666.921
666.333
666.353
667
668.29
665.183
664.557
664.539
665.155
666.43
663.743
663.065
662.996
663.573
664.827
662.717
661.976
661.845
662.374
663.601
662.168
661.361
661.169
661.65
662.852
662.083
661.229
660.994
661.441
662.624
662.354
662.132
665.188
667.376
667.535
668.034
666.025
661.112
661.749
661.405
663.224
663.006
662.7
664.099
664.381
665.215
660.966
661.154
662.736
662.884
661.939
662.198
663.385
663.686
665.683
665.677
664.028
664.011
661.623
661.642
660.945
661.541
661.774
661.116
663.235
664.992
662.845
659.582
658.226
657.685
657.829
658.685
660.064
658.909
658.435
658.687
659.749
663.788
663.171
663.163
663.787
665.067
666.009
665.431
665.46
666.115
667.411
666.161
665.573
665.591
666.237
667.527
666.672
666.097
666.131
666.788
668.085
664.64
664.04
664.047
664.685
665.971
658.675
657.452
656.978
657.184
658.041
659.382
658.211
657.79
658.049
658.982
659.601
658.614
658.269
658.631
659.763
661.096
660.047
659.716
660.059
661.136
661.466
660.7
660.549
661.064
662.284
661.036
660.164
659.92
660.362
661.541
662.618
661.91
661.812
662.367
663.61
662.871
662.133
662.006
662.538
663.768
663.754
663.066
662.987
663.556
664.806
658.569
657.371
656.915
657.136
658.024
659.438
658.518
658.228
658.631
659.787
661.223
660.483
660.354
660.885
662.115
661.4
660.69
660.591
661.144
662.386
660.375
659.587
659.415
659.911
661.122
660.676
659.927
659.79
660.315
661.541
661.926
661.244
661.171
661.746
662.999
662.248
661.587
661.535
662.125
663.387
664.265
663.626
663.594
664.2
665.47
664.277
663.659
663.649
664.272
665.552
662.574
661.895
661.825
662.401
663.654
662.574
661.916
661.865
662.457
663.719
659.029
657.759
657.26
657.442
658.323
659.746
658.704
658.319
658.644
659.754
658.878
657.794
657.374
657.648
658.642
659.866
658.978
658.715
659.139
660.308
660.198
659.398
659.213
659.7
660.905
659.382
658.447
658.138
658.525
659.672
661.775
661.092
661.019
661.592
662.845
663.586
662.962
662.945
663.563
664.839
661.364
660.659
660.563
661.12
662.364
663.612
662.402
661.906
662.079
662.868
664.43
662.618
662.715
660.533
660.492
662.815
662.997
660.597
660.697
664.879
667.256
664.897
667.035
665.116
665
666.644
662.558
662.667
660.45
660.395
662.78
662.964
660.535
660.673
665.005
667.52
665.017
667.237
665.226
665.053
666.82
662.592
662.713
660.436
660.364
662.838
663.033
660.544
660.692
665.127
668.176
665.143
667.806
665.356
665.172
667.301
663.035
663.155
660.83
660.751
663.293
663.526
660.945
661.119
665.738
668.965
665.728
668.569
665.914
665.703
667.964
663.82
663.936
661.62
661.542
664.073
664.35
661.734
661.907
666.543
669.565
666.519
669.25
666.672
666.517
668.661
665.23
665.335
663.066
662.99
665.446
665.678
663.175
663.329
667.804
670.594
667.758
670.298
667.882
667.715
669.702
657.208
657.193
658.68
658.675
657.225
657.253
658.711
658.764
656.151
655.359
656.199
655.478
656.213
656.348
655.718
657.103
657.109
658.588
658.566
657.171
657.233
658.646
658.712
656.002
655.357
656.082
655.507
656.156
656.34
655.763
657.06
657.092
658.558
658.516
657.19
657.286
658.648
658.752
656.078
655.666
656.181
655.801
656.31
656.502
656.039
657.449
657.498
658.943
658.889
657.621
657.757
659.049
659.159
656.566
656.375
656.686
656.501
656.866
657.097
656.726
658.272
658.329
659.748
659.689
658.483
658.671
659.856
659.98
657.48
657.414
657.611
657.514
657.814
658.071
657.702
659.777
659.836
661.224
661.165
659.991
660.153
661.333
661.451
658.997
658.776
659.122
658.886
659.291
659.51
659.078
675.33
674.94
674.173
673.542
672.536
671.899
670.287
669.771
670.756
670.149
672.526
671.911
673.825
673.244
674.879
674.459
672.009
671.174
670.923
669.778
669.277
668.212
668.281
666.937
676.73
679.064
676.311
678.494
675.646
677.891
674.962
677.085
673.284
674.537
672.122
673.704
676.485
675.151
669.584
667.607
668.471
667.006
667.1
665.437
665.788
664.534
671.936
669.874
670.726
669.173
673.824
671.823
681.762
683.394
680.667
682.367
680.574
682.622
679.263
681.148
678.89
681.651
676.861
679.425
675.298
677.832
673.516
676.088
671.356
670.982
669.634
669.448
667.734
667.262
666.37
665.899
672.8
673.265
674.831
674.903
668.185
668.184
666.879
667.138
665.144
664.759
663.997
663.791
671.147
671.915
669.686
670.828
675.926
679.014
677.086
680.562
678.121
681.29
678.804
682.42
674.124
677.121
675.68
679.084
672.534
675.483
674.578
677.925
685.624
689.182
686.201
689.726
684.501
687.807
685.582
688.943
682.684
685.22
684.576
687.34
673.803
669.507
677.72
680.681
683.931
670.124
674.67
679.349
682.512
686.023
668.988
673.028
676.96
680.712
684.429
692.477
694.102
694.251
695.687
690.75
692.616
693.088
694.641
687.842
689.933
691.147
692.998
671.131
672.794
676.106
678.386
680.711
683.088
684.397
686.753
689.335
691.703
669.724
671.057
674.259
676.62
678.535
681.242
682.824
685.762
688.288
691.398
672.132
674.789
670.239
672.594
667.685
668.448
666
666.43
674.77
677.919
676.626
679.973
668.641
671.001
667.616
669.87
664.653
665.062
663.691
664.001
673.089
676.294
672.049
675.182
679.97
683.805
686.469
691.145
681.469
685.497
687.47
692.06
678.592
682.305
685.513
690.112
677.296
681.044
684.141
688.493
694.621
695.38
696.798
694.91
695.248
696.548
693.496
694.431
695.934
694.067
694.478
695.877
691.278
692.493
694.162
692.832
693.437
695.003
674.849
677.219
679.779
680.833
682.927
685.215
685.365
687.187
689.224
688.616
690.159
692.118
691.869
692.698
694.529
672.955
675.608
678.5
679.795
682.594
685.489
684.481
686.971
689.59
688.291
690.184
692.519
691.857
692.925
695.035
664.45
663.596
663.709
662.617
666.624
665.566
665.769
664.467
664.086
662.386
663.892
662.312
663.551
662.037
663.188
661.774
661.996
662.703
661.529
662.362
661.707
661.127
661.784
660.819
663.452
662.372
661.519
660.596
660.854
659.982
660.787
659.887
660.665
659.159
660.97
659.56
660.414
658.875
660.49
659.076
660.189
658.517
659.799
658.283
659.504
658.182
658.742
657.665
662.474
661.733
661.519
660.692
664.745
664.098
663.62
662.921
660.062
659.084
660.896
659.993
660.592
659.799
659.674
659.016
662.563
661.916
661.545
661.039
659.25
658.298
658.414
657.607
658.847
657.555
658.039
657.292
659.514
658.119
658.831
657.952
658.189
657.057
657.351
656.725
657.465
656.526
656.749
656.238
660.726
661.462
659.306
660.07
660.679
661.463
659.188
659.985
660.625
661.33
659.008
659.722
663.181
665.881
661.501
660.179
658.784
666.442
663.767
662.202
660.9
659.416
665.355
662.726
660.853
659.603
658.609
662.743
664.518
661.363
663.082
662.625
664.315
661.148
662.795
662.343
663.939
660.736
662.268
667.174
668.546
664.333
665.724
662.725
664.15
661.497
662.945
660.099
661.542
665.801
666.597
663.104
663.905
661.285
662.24
660.128
661.299
659.264
660.715
661.56
661.837
660.494
660.478
664.004
664.204
662.723
662.544
659.075
659.428
659.99
660.588
659.683
659.443
658.912
658.599
661.736
661.343
660.866
660.383
658.347
658.504
657.66
657.752
658.218
658.962
657.859
659.029
659.05
660.01
658.506
659.838
657.544
658.107
657.306
658.328
656.98
657.475
656.813
657.705
666.94
669.364
671.673
666.05
668.786
671.101
666.585
669.037
671.398
665.64
668.388
670.801
666.069
668.472
670.868
664.977
667.853
670.427
670.41
672.754
675.319
667.62
670.039
672.647
666.074
668.591
671.237
664.981
667.488
670.043
664.258
667.28
670.084
668.077
670.613
673.513
665.451
668.024
670.923
664.003
666.722
669.7
663.37
666.227
669.228
663.552
666.718
669.799
658.57
659.644
662.401
667.467
659.039
660.187
663.038
668.151
658.364
659.482
662.247
667.359
658.661
659.886
662.762
667.889
658.104
659.285
661.937
666.896
658.004
659.321
662.148
667.215
658.097
659.558
662.585
667.779
657.823
659.448
662.596
667.823
657.505
658.907
661.671
666.688
657.591
659.095
661.629
666.145
657.927
659.192
661.694
666.352
658.063
659.425
661.783
666.039
657.167
658.704
661.682
666.884
657.182
658.811
661.492
666.113
656.823
658.492
661.572
666.746
656.827
658.565
661.324
665.925
658.637
659.599
662.11
666.88
659.265
660.088
662.236
666.407
658.579
659.573
662.049
666.785
659.238
660.1
662.236
666.364
658.499
659.555
661.953
666.552
659.104
660.053
662.195
666.275
658.476
659.615
661.896
666.226
658.978
660.023
662.14
666.107
658.537
659.766
661.948
665.915
660.242
660.943
662.885
665.873
661.35
661.974
663.964
666.776
660.124
660.882
662.839
665.817
661.226
661.918
663.934
666.756
659.901
660.767
662.77
665.77
661.002
661.812
663.879
666.708
659.578
660.591
662.639
665.653
660.698
661.658
663.788
666.64
659.163
660.361
662.481
665.525
660.343
661.482
663.691
666.574
658.377
659.92
662.271
665.429
659.438
660.964
663.368
666.354
658.761
660.142
662.381
665.486
659.887
661.225
663.53
666.459
658.033
659.715
662.17
665.384
659.029
660.722
663.222
666.239
657.706
659.505
662.029
665.269
658.657
660.488
663.068
666.117
675.221
681.528
686.95
691.415
694.914
675.631
681.87
687.28
691.743
695.24
675.173
681.503
686.934
691.402
694.902
675.548
681.813
687.233
691.701
695.2
675.086
681.464
686.908
691.382
694.884
675.262
681.563
686.997
691.471
694.974
675.426
681.736
687.179
691.658
695.163
675.337
681.67
687.128
691.616
695.125
675.032
681.433
686.889
691.368
694.873
675.367
681.918
687.397
691.88
695.385
675.105
681.55
687.008
691.485
694.988
675.47
682.028
687.503
691.983
695.486
675.029
681.436
686.899
691.384
694.891
675.407
681.972
687.459
691.947
695.453
674.936
681.373
686.853
691.346
694.856
675.388
681.982
687.483
691.978
695.487
675.263
681.676
687.115
691.581
695.079
675.739
682.253
687.702
692.168
695.664
675.257
681.692
687.137
691.606
695.105
675.734
682.262
687.716
692.184
695.681
675.268
681.742
687.198
691.671
695.171
675.74
682.29
687.751
692.221
695.72
675.412
681.953
687.422
691.898
695.4
675.824
682.392
687.86
692.334
695.834
675.7
682.267
687.74
692.217
695.718
701.945
702.993
701.456
702.533
700.612
701.805
699.543
700.937
698.484
700.092
696.827
698.684
697.674
699.49
695.991
697.782
695.12
696.752
713.499
726.381
737.432
746.248
752.497
713.317
726.291
737.47
746.345
752.698
713.277
726.262
737.356
746.191
752.446
713.125
726.211
737.402
746.33
752.668
712.855
726.025
737.199
746.074
752.345
712.717
725.982
737.251
746.217
752.571
712.287
725.685
736.97
745.901
752.196
712.197
725.672
737.042
746.06
752.437
711.628
725.256
736.671
745.674
752.001
711.637
725.307
736.787
745.864
752.267
710.206
724.195
735.87
745.033
751.426
710.358
724.359
736.073