/*--------------------------------*- C++ -*----------------------------------*\
  =========                 |
  \\      /  F ield         | OpenFOAM: The Open Source CFD Toolbox
   \\    /   O peration     | Website:  https://openfoam.org
    \\  /    A nd           | Version:  13
     \\/     M anipulation  |
\*---------------------------------------------------------------------------*/
FoamFile
{
    format      ascii;
    class       volScalarField;
    location    "539.831886";
    object      T;
}
// * * * * * * * * * * * * * * * * * * * * * * * * * * * * * * * * * * * * * //

dimensions      [0 0 0 1 0 0 0];

internalField   nonuniform List<scalar> 
5712
(
303.034
303.042
303.054
303.066
303.084
303.096
303.126
303.136
303.118
303.129
303.085
303.096
303.061
303.072
303.043
303.051
303.094
303.109
303.114
303.134
303.144
303.164
303.163
303.187
303.008
302.965
303.016
302.976
303.027
302.986
303.039
303
303.07
303.047
303.091
303.062
303.011
303.036
303.139
303.175
303.159
303.186
303.185
303.216
303.209
303.232
303.095
303.133
303.117
303.146
303.06
303.097
302.915
302.886
302.936
302.905
302.936
302.899
302.961
302.927
302.967
302.917
303.004
302.958
303.033
302.987
303.066
303.019
303.105
303.112
303.137
303.14
303.172
303.181
303.198
303.206
303.078
303.07
303.041
303.039
303.164
303.164
303.188
303.184
303.221
303.228
303.242
303.246
303.109
303.095
303.136
303.115
303.021
302.965
303
302.937
302.98
302.923
302.968
302.903
303.054
303
303.026
302.964
303.084
303.03
303.047
302.986
302.845
302.781
302.835
302.771
302.865
302.805
302.845
302.784
302.897
302.851
302.863
302.813
303.06
303.139
302.988
302.934
302.875
303.128
303.044
302.958
302.9
302.837
303.148
303.074
303.002
302.933
302.866
302.721
302.692
302.689
302.663
302.751
302.718
302.709
302.681
302.804
302.766
302.744
302.711
303.109
303.078
303.017
302.976
302.933
302.89
302.866
302.823
302.777
302.734
303.135
303.11
303.051
303.007
302.973
302.923
302.895
302.841
302.797
302.741
303.09
303.041
303.125
303.082
303.172
303.158
303.204
303.196
303.042
302.985
303.008
302.947
303.155
303.112
303.175
303.133
303.229
303.221
303.248
303.242
303.074
303.015
303.093
303.036
302.948
302.879
302.831
302.748
302.92
302.848
302.812
302.731
302.973
302.907
302.849
302.767
302.997
302.93
302.874
302.797
302.683
302.67
302.646
302.677
302.671
302.649
302.702
302.686
302.66
302.691
302.685
302.661
302.742
302.72
302.692
302.714
302.703
302.677
303.04
302.997
302.951
302.931
302.893
302.853
302.848
302.816
302.78
302.789
302.762
302.728
302.731
302.717
302.686
303.075
303.026
302.974
302.949
302.899
302.848
302.864
302.82
302.774
302.795
302.762
302.721
302.732
302.713
302.677
303.235
303.25
303.249
303.269
303.194
303.213
303.21
303.234
303.243
303.275
303.246
303.276
303.252
303.28
303.259
303.285
303.281
303.267
303.289
303.274
303.286
303.297
303.284
303.303
303.253
303.273
303.29
303.307
303.302
303.319
303.304
303.321
303.307
303.335
303.301
303.328
303.311
303.34
303.31
303.337
303.315
303.347
303.322
303.351
303.328
303.354
303.343
303.364
303.271
303.284
303.289
303.304
303.228
303.24
303.249
303.262
303.317
303.335
303.301
303.317
303.306
303.321
303.324
303.336
303.269
303.281
303.288
303.298
303.332
303.35
303.348
303.363
303.34
303.365
303.355
303.37
303.327
303.354
303.34
303.357
303.353
303.375
303.368
303.381
303.366
303.385
303.38
303.39
303.305
303.291
303.332
303.317
303.306
303.291
303.334
303.319
303.306
303.293
303.337
303.324
303.257
303.207
303.289
303.314
303.341
303.196
303.246
303.276
303.301
303.329
303.216
303.266
303.301
303.325
303.344
303.267
303.234
303.293
303.26
303.269
303.237
303.297
303.266
303.274
303.244
303.304
303.275
303.182
303.157
303.236
303.209
303.266
303.239
303.289
303.262
303.316
303.289
303.208
303.192
303.258
303.243
303.293
303.274
303.315
303.292
303.332
303.304
303.287
303.281
303.307
303.307
303.241
303.237
303.265
303.268
303.334
303.327
303.317
303.305
303.323
303.327
303.338
303.343
303.284
303.291
303.301
303.309
303.348
303.345
303.362
303.36
303.351
303.336
303.358
303.336
303.335
303.317
303.346
303.321
303.364
303.353
303.369
303.349
303.375
303.365
303.379
303.362
303.188
303.144
303.101
303.205
303.154
303.112
303.195
303.149
303.106
303.212
303.161
303.117
303.204
303.159
303.115
303.224
303.171
303.123
303.122
303.079
303.033
303.174
303.129
303.082
303.203
303.156
303.108
303.223
303.177
303.13
303.237
303.181
303.129
303.165
303.118
303.065
303.214
303.166
303.113
303.241
303.19
303.135
303.253
303.2
303.144
303.25
303.191
303.134
303.347
303.328
303.277
303.183
303.338
303.318
303.265
303.171
303.351
303.33
303.279
303.185
303.345
303.323
303.27
303.175
303.355
303.334
303.285
303.194
303.358
303.334
303.281
303.188
303.356
303.33
303.273
303.178
303.362
303.332
303.273
303.177
303.367
303.341
303.29
303.198
303.365
303.338
303.291
303.208
303.359
303.336
303.29
303.204
303.356
303.332
303.288
303.21
303.374
303.345
303.29
303.194
303.373
303.343
303.294
303.208
303.38
303.35
303.292
303.197
303.38
303.348
303.297
303.212
303.345
303.328
303.282
303.194
303.333
303.319
303.279
303.202
303.346
303.329
303.283
303.196
303.334
303.319
303.279
303.203
303.348
303.329
303.285
303.2
303.336
303.32
303.28
303.205
303.348
303.328
303.286
303.206
303.339
303.32
303.281
303.208
303.347
303.325
303.285
303.212
303.315
303.303
303.267
303.212
303.294
303.284
303.247
303.196
303.317
303.304
303.268
303.213
303.297
303.285
303.248
303.196
303.321
303.306
303.27
303.214
303.301
303.287
303.249
303.197
303.327
303.31
303.272
303.216
303.306
303.29
303.251
303.198
303.335
303.314
303.275
303.219
303.313
303.293
303.253
303.2
303.35
303.323
303.279
303.221
303.33
303.303
303.259
303.204
303.343
303.318
303.277
303.22
303.322
303.298
303.256
303.202
303.357
303.327
303.281
303.222
303.338
303.308
303.262
303.206
303.363
303.331
303.284
303.224
303.346
303.312
303.265
303.209
303.041
302.927
302.83
302.75
302.69
303.034
302.921
302.824
302.745
302.684
303.042
302.927
302.83
302.751
302.69
303.035
302.922
302.825
302.746
302.685
303.044
302.928
302.83
302.751
302.69
303.041
302.926
302.829
302.75
302.689
303.038
302.923
302.826
302.746
302.685
303.039
302.925
302.827
302.747
302.686
303.045
302.929
302.831
302.751
302.69
303.039
302.92
302.822
302.743
302.682
303.043
302.927
302.829
302.749
302.688
303.037
302.918
302.82
302.741
302.68
303.045
302.929
302.83
302.751
302.69
303.038
302.919
302.821
302.741
302.68
303.047
302.93
302.831
302.752
302.691
303.039
302.919
302.82
302.741
302.68
303.04
302.924
302.827
302.748
302.687
303.032
302.914
302.816
302.737
302.677
303.041
302.924
302.826
302.747
302.686
303.032
302.914
302.816
302.737
302.677
303.04
302.923
302.825
302.746
302.685
303.032
302.914
302.816
302.737
302.676
303.038
302.919
302.821
302.742
302.681
303.031
302.912
302.814
302.735
302.674
303.033
302.914
302.816
302.737
302.676
302.554
302.536
302.562
302.544
302.578
302.557
302.597
302.573
302.617
302.588
302.647
302.615
302.632
302.6
302.663
302.631
302.679
302.65
302.354
302.135
301.952
301.81
301.713
302.357
302.137
301.952
301.808
301.71
302.358
302.137
301.953
301.811
301.714
302.36
302.138
301.953
301.809
301.711
302.365
302.141
301.956
301.813
301.715
302.368
302.142
301.955
301.811
301.712
302.375
302.147
301.96
301.816
301.718
302.377
302.148
301.959
301.814
301.715
302.387
302.155
301.965
301.82
301.721
302.387
302.154
301.964
301.817
301.718
302.413
302.174
301.98
301.831
301.731
302.411
302.172
301.976
301.827
301.727
302.4
302.165
301.972
301.825
301.726
302.398
302.162
301.969
301.821
301.722
302.426
302.184
301.987
301.837
301.737
302.425
302.182
301.985
301.834
301.733
302.44
302.195
301.995
301.844
301.743
302.44
302.194
301.994
301.842
301.74
303.282
303.253
303.227
303.26
303.217
303.221
303.223
303.229
303.213
303.222
303.174
303.184
303.154
303.165
303.183
303.192
303.194
303.201
303.196
303.202
303.258
303.265
303.176
303.141
303.13
303.127
303.159
303.176
303.136
303.183
303.101
303.049
303.173
303.158
303.118
303.162
303.144
303.141
303.21
303.212
303.189
303.197
303.208
303.216
303.206
303.193
303.148
303.156
303.173
303.182
303.244
303.255
303.235
303.244
303.23
303.228
303.203
303.172
303.204
303.311
303.338
303.349
303.348
303.333
303.304
303.327
303.337
303.333
303.313
303.202
303.215
303.216
303.205
303.182
303.166
303.177
303.178
303.166
303.143
303.156
303.167
303.168
303.157
303.134
303.152
303.163
303.163
303.152
303.129
303.185
303.197
303.197
303.187
303.164
303.234
303.269
303.287
303.291
303.28
303.197
303.235
303.254
303.258
303.245
303.224
303.25
303.264
303.263
303.245
303.158
303.194
303.211
303.213
303.198
303.104
303.141
303.159
303.161
303.145
303.205
303.224
303.232
303.226
303.205
303.196
303.22
303.231
303.229
303.21
303.154
303.177
303.188
303.185
303.166
303.192
303.209
303.214
303.207
303.186
303.176
303.195
303.202
303.196
303.175
303.17
303.186
303.191
303.183
303.162
303.263
303.292
303.307
303.308
303.296
303.248
303.27
303.281
303.277
303.258
303.22
303.237
303.243
303.236
303.215
303.226
303.242
303.247
303.238
303.217
303.239
303.257
303.264
303.258
303.237
303.246
303.262
303.267
303.259
303.238
303.234
303.248
303.251
303.241
303.219
303.221
303.234
303.237
303.228
303.205
303.175
303.189
303.191
303.182
303.16
303.183
303.195
303.197
303.187
303.164
303.202
303.217
303.221
303.213
303.191
303.209
303.223
303.226
303.217
303.195
303.295
303.323
303.335
303.334
303.32
303.291
303.312
303.321
303.317
303.297
303.278
303.302
303.314
303.313
303.296
303.277
303.295
303.302
303.296
303.275
303.261
303.278
303.284
303.277
303.256
303.263
303.284
303.294
303.29
303.27
303.231
303.245
303.248
303.239
303.217
303.199
303.212
303.214
303.203
303.181
303.233
303.248
303.252
303.243
303.222
303.264
303.248
303.263
303.245
303.303
303.284
303.303
303.287
303.261
303.259
303.244
303.248
303.302
303.301
303.285
303.29
303.224
303.184
303.209
303.171
303.223
303.187
303.206
303.171
303.206
303.221
303.214
303.224
303.193
303.178
303.223
303.205
303.231
303.211
303.262
303.243
303.274
303.255
303.185
303.166
303.197
303.175
303.156
303.133
303.147
303.116
303.136
303.106
303.15
303.112
303.136
303.102
303.157
303.106
303.147
303.101
303.127
303.081
303.1
303.053
303.247
303.237
303.239
303.227
303.298
303.294
303.289
303.286
303.191
303.161
303.198
303.171
303.225
303.215
303.209
303.201
303.276
303.275
303.26
303.262
303.177
303.149
303.159
303.133
303.141
303.084
303.093
303.03
303.146
303.085
303.102
303.035
303.128
303.074
303.082
303.02
303.108
303.055
303.065
303.004
303.145
303.127
303.11
303.081
303.148
303.133
303.105
303.077
303.153
303.145
303.095
303.072
303.249
303.301
303.198
303.143
303.073
303.303
303.253
303.202
303.144
303.061
303.298
303.242
303.178
303.107
303.035
303.097
303.083
303.004
302.977
303.111
303.097
303.01
302.983
303.132
303.12
303.017
302.989
303.302
303.295
303.249
303.24
303.194
303.185
303.127
303.116
303.008
302.979
303.298
303.291
303.237
303.218
303.166
303.143
303.085
303.057
302.976
302.94
303.222
303.19
303.213
303.181
303.292
303.289
303.285
303.284
303.134
303.088
303.145
303.101
303.206
303.169
303.191
303.152
303.276
303.273
303.263
303.258
303.126
303.074
303.11
303.055
303.039
302.98
302.919
302.844
303.055
302.997
302.941
302.871
303.027
302.965
302.901
302.823
303.016
302.949
302.891
302.814
303.078
303.066
302.995
302.993
303.092
303.078
302.998
302.998
303.112
303.093
303.002
303
303.279
303.252
303.224
303.198
303.17
303.148
303.104
303.083
302.995
302.995
303.275
303.246
303.193
303.166
303.121
303.101
303.048
303.039
302.974
302.979
303.366
303.367
303.35
303.357
303.338
303.339
303.32
303.328
303.387
303.401
303.371
303.385
303.386
303.399
303.369
303.383
303.372
303.386
303.374
303.385
303.396
303.382
303.341
303.322
303.312
303.294
303.351
303.33
303.358
303.339
303.362
303.343
303.409
303.415
303.394
303.401
303.409
303.416
303.393
303.402
303.408
303.417
303.396
303.407
303.378
303.391
303.361
303.377
303.372
303.373
303.365
303.368
303.34
303.34
303.332
303.333
303.387
303.391
303.394
303.396
303.353
303.36
303.339
303.349
303.319
303.324
303.305
303.312
303.376
303.384
303.363
303.375
303.402
303.413
303.404
303.41
303.409
303.417
303.408
303.412
303.392
303.405
303.398
303.405
303.38
303.395
303.39
303.398
303.416
303.413
303.42
303.416
303.415
303.412
303.42
303.415
303.412
303.409
303.419
303.415
303.375
303.344
303.396
303.41
303.417
303.343
303.374
303.394
303.408
303.414
303.344
303.376
303.397
303.409
303.412
303.403
303.384
303.403
303.383
303.403
303.385
303.404
303.385
303.402
303.387
303.406
303.388
303.343
303.336
303.374
303.365
303.392
303.381
303.404
303.391
303.407
303.391
303.346
303.343
303.377
303.373
303.396
303.389
303.406
303.394
303.406
303.39
303.378
303.379
303.371
303.376
303.345
303.349
303.338
303.345
303.391
303.389
303.397
303.392
303.361
303.368
303.35
303.357
303.326
303.337
303.315
303.324
303.382
303.382
303.373
303.372
303.401
303.392
303.4
303.384
303.405
303.394
303.404
303.387
303.394
303.386
303.394
303.378
303.385
303.376
303.387
303.371
303.362
303.34
303.354
303.329
303.364
303.342
303.357
303.33
303.367
303.342
303.36
303.329
303.321
303.293
303.348
303.32
303.363
303.335
303.371
303.342
303.362
303.326
303.33
303.299
303.358
303.325
303.37
303.335
303.371
303.335
303.359
303.318
303.402
303.365
303.302
303.2
303.389
303.352
303.289
303.187
303.403
303.366
303.303
303.201
303.39
303.354
303.291
303.189
303.404
303.367
303.307
303.208
303.396
303.36
303.299
303.2
303.382
303.347
303.286
303.186
303.371
303.338
303.278
303.18
303.4
303.364
303.306
303.208
303.394
303.357
303.305
303.218
303.402
303.365
303.31
303.217
303.395
303.358
303.306
303.222
303.395
303.36
303.3
303.201
303.391
303.355
303.302
303.215
303.388
303.355
303.296
303.199
303.386
303.352
303.3
303.214
303.406
303.369
303.31
303.213
303.4
303.363
303.31
303.223
303.406
303.368
303.31
303.214
303.399
303.362
303.309
303.223
303.404
303.366
303.31
303.217
303.398
303.36
303.308
303.224
303.4
303.362
303.309
303.222
303.395
303.358
303.307
303.225
303.394
303.357
303.307
303.227
303.387
303.35
303.299
303.236
303.368
303.331
303.28
303.221
303.387
303.35
303.299
303.237
303.368
303.331
303.28
303.221
303.386
303.349
303.299
303.236
303.368
303.331
303.279
303.221
303.386
303.348
303.298
303.236
303.368
303.33
303.278
303.22
303.385
303.347
303.298
303.236
303.367
303.328
303.277
303.219
303.379
303.342
303.293
303.232
303.363
303.325
303.274
303.216
303.383
303.345
303.296
303.234
303.365
303.327
303.276
303.218
303.375
303.338
303.29
303.229
303.358
303.321
303.271
303.214
303.369
303.335
303.287
303.227
303.352
303.317
303.268
303.211
303.051
302.933
302.833
302.753
302.692
303.044
302.927
302.828
302.748
302.686
303.051
302.933
302.833
302.753
302.692
303.044
302.927
302.828
302.748
302.686
303.052
302.933
302.833
302.753
302.692
303.048
302.931
302.831
302.751
302.69
303.043
302.926
302.828
302.748
302.686
303.041
302.926
302.827
302.748
302.686
303.051
302.933
302.833
302.753
302.692
303.044
302.924
302.824
302.744
302.683
303.051
302.931
302.831
302.751
302.69
303.044
302.922
302.823
302.743
302.681
303.049
302.931
302.832
302.752
302.691
303.042
302.922
302.822
302.742
302.681
303.048
302.931
302.832
302.752
302.691
303.04
302.92
302.821
302.741
302.68
303.051
302.931
302.831
302.75
302.689
303.043
302.921
302.821
302.74
302.679
303.051
302.93
302.83
302.75
302.688
303.043
302.92
302.82
302.74
302.679
303.049
302.929
302.829
302.748
302.687
303.042
302.919
302.819
302.739
302.678
303.046
302.924
302.824
302.744
302.683
303.039
302.917
302.817
302.737
302.676
303.04
302.918
302.819
302.739
302.678
302.809
302.788
302.807
302.785
302.8
302.778
302.789
302.767
302.772
302.753
302.727
302.703
302.747
302.726
302.71
302.683
302.694
302.667
302.54
302.267
302.05
301.887
301.78
302.546
302.271
302.051
301.887
301.778
302.537
302.265
302.049
301.886
301.78
302.542
302.268
302.049
301.885
301.777
302.531
302.262
302.046
301.884
301.778
302.537
302.264
302.046
301.883
301.775
302.523
302.256
302.042
301.881
301.775
302.529
302.259
302.043
301.88
301.773
302.511
302.248
302.036
301.876
301.771
302.519
302.252
302.038
301.876
301.769
302.481
302.227
302.021
301.864
301.761
302.486
302.23
302.022
301.864
301.759
302.496
302.238
302.029
301.871
301.766
302.504
302.243
302.031
301.871
301.765
302.467
302.216
302.012
301.858
301.755
302.47
302.218
302.013
301.857
301.753
302.453
302.205
302.004
301.851
301.749
302.455
302.206
302.003
301.849
301.746
303.305
303.278
303.298
303.327
303.366
303.35
303.366
303.348
303.338
303.318
303.338
303.321
303.011
303.016
303.029
303.049
303.076
303.109
303.009
303.014
303.026
303.045
303.07
303.099
302.998
302.979
303.004
302.986
303.018
303.002
303.041
303.028
303.071
303.062
303.107
303.096
303.144
303.177
303.206
303.23
303.247
303.26
303.13
303.16
303.187
303.21
303.228
303.241
303.034
303.044
303.042
303.029
303.006
303.039
303.049
303.047
303.035
303.011
303.052
303.062
303.06
303.048
303.024
303.073
303.082
303.081
303.069
303.045
303.1
303.11
303.109
303.097
303.073
303.133
303.144
303.143
303.131
303.108
303.032
303.042
303.04
303.028
303.004
303.037
303.047
303.045
303.033
303.009
303.049
303.059
303.057
303.045
303.022
303.069
303.078
303.077
303.065
303.041
303.094
303.104
303.103
303.091
303.067
303.123
303.134
303.133
303.122
303.098
303.021
303.031
303.029
303.017
302.993
303.002
303.011
303.01
302.997
302.974
303.027
303.036
303.035
303.022
302.999
303.009
303.018
303.017
303.004
302.981
303.042
303.051
303.049
303.037
303.014
303.025
303.034
303.033
303.021
302.997
303.065
303.074
303.073
303.061
303.037
303.052
303.061
303.06
303.048
303.024
303.096
303.105
303.104
303.092
303.069
303.086
303.096
303.095
303.083
303.059
303.132
303.142
303.141
303.13
303.106
303.121
303.131
303.131
303.119
303.096
303.169
303.18
303.18
303.169
303.146
303.203
303.216
303.217
303.206
303.183
303.233
303.247
303.25
303.24
303.218
303.259
303.275
303.279
303.271
303.249
303.279
303.297
303.302
303.295
303.274
303.294
303.312
303.319
303.312
303.291
303.155
303.166
303.166
303.155
303.132
303.186
303.198
303.199
303.189
303.166
303.214
303.228
303.23
303.22
303.197
303.239
303.253
303.256
303.247
303.225
303.258
303.273
303.278
303.269
303.247
303.271
303.287
303.292
303.284
303.262
303.014
303.024
303.042
303.067
303.1
303.138
303.012
303.022
303.039
303.063
303.093
303.126
303.001
302.982
303.012
302.994
303.032
303.016
303.06
303.048
303.096
303.088
303.138
303.13
303.178
303.215
303.244
303.263
303.271
303.269
303.161
303.193
303.219
303.238
303.247
303.247
303.037
303.046
303.045
303.032
303.009
303.047
303.057
303.055
303.042
303.019
303.065
303.075
303.073
303.061
303.037
303.091
303.1
303.099
303.087
303.063
303.124
303.133
303.132
303.12
303.096
303.162
303.172
303.172
303.159
303.136
303.035
303.044
303.043
303.03
303.007
303.045
303.054
303.053
303.04
303.017
303.062
303.072
303.07
303.058
303.034
303.087
303.096
303.095
303.082
303.059
303.117
303.126
303.125
303.113
303.089
303.151
303.161
303.16
303.148
303.125
303.024
303.033
303.032
303.019
302.996
303.005
303.014
303.013
303
302.977
303.035
303.045
303.043
303.031
303.007
303.017
303.027
303.025
303.013
302.989
303.055
303.065
303.063
303.05
303.027
303.039
303.049
303.047
303.035
303.011
303.084
303.093
303.092
303.079
303.056
303.072
303.081
303.08
303.068
303.044
303.12
303.13
303.129
303.116
303.093
303.112
303.122
303.12
303.108
303.084
303.163
303.173
303.172
303.16
303.136
303.154
303.164
303.163
303.151
303.128
303.203
303.214
303.214
303.202
303.178
303.241
303.252
303.253
303.241
303.218
303.271
303.284
303.285
303.275
303.252
303.292
303.307
303.31
303.301
303.278
303.302
303.319
303.324
303.316
303.294
303.302
303.32
303.326
303.32
303.299
303.186
303.197
303.197
303.185
303.161
303.219
303.231
303.231
303.22
303.196
303.246
303.259
303.26
303.25
303.227
303.266
303.28
303.282
303.272
303.25
303.276
303.291
303.295
303.286
303.264
303.277
303.293
303.298
303.29
303.268
303.273
303.277
303.219
303.178
303.176
303.166
303.204
303.298
303.286
303.292
303.259
303.262
303.268
303.242
303.237
303.221
303.3
303.296
303.267
303.264
303.281
303.276
303.253
303.248
303.212
303.211
303.242
303.242
303.287
303.286
303.3
303.288
303.284
303.297
303.256
303.224
303.264
303.325
303.351
303.361
303.359
303.343
303.316
303.337
303.346
303.342
303.322
303.245
303.257
303.257
303.245
303.222
303.203
303.214
303.213
303.201
303.178
303.201
303.212
303.212
303.2
303.177
303.191
303.202
303.201
303.189
303.166
303.229
303.241
303.24
303.229
303.205
303.344
303.367
303.376
303.372
303.357
303.331
303.353
303.361
303.356
303.339
303.326
303.345
303.351
303.345
303.324
303.299
303.319
303.325
303.319
303.299
303.291
303.305
303.308
303.299
303.276
303.299
303.316
303.32
303.312
303.29
303.269
303.282
303.284
303.274
303.251
303.265
303.278
303.281
303.271
303.249
303.248
303.261
303.262
303.252
303.229
303.345
303.368
303.377
303.373
303.356
303.329
303.346
303.352
303.344
303.323
303.295
303.309
303.311
303.302
303.279
303.291
303.304
303.306
303.296
303.273
303.311
303.325
303.329
303.32
303.297
303.305
303.319
303.321
303.312
303.289
303.28
303.293
303.295
303.284
303.261
303.275
303.287
303.288
303.277
303.254
303.238
303.25
303.25
303.239
303.216
303.237
303.248
303.249
303.237
303.214
303.269
303.282
303.283
303.273
303.25
303.269
303.281
303.282
303.271
303.248
303.336
303.36
303.369
303.366
303.35
303.322
303.341
303.349
303.343
303.322
303.339
303.359
303.367
303.363
303.344
303.32
303.336
303.341
303.334
303.312
303.313
303.328
303.332
303.323
303.301
303.329
303.347
303.353
303.346
303.325
303.284
303.296
303.298
303.287
303.264
303.249
303.261
303.261
303.25
303.227
303.292
303.305
303.307
303.296
303.273
303.252
303.274
303.283
303.28
303.265
303.236
303.27
303.268
303.309
303.31
303.266
303.262
303.308
303.306
303.227
303.183
303.227
303.187
303.223
303.225
303.194
303.271
303.269
303.31
303.312
303.267
303.263
303.309
303.306
303.225
303.178
303.225
303.184
303.221
303.224
303.191
303.27
303.268
303.311
303.312
303.266
303.262
303.309
303.306
303.223
303.167
303.223
303.173
303.219
303.222
303.183
303.262
303.26
303.304
303.305
303.257
303.253
303.301
303.298
303.212
303.152
303.212
303.16
303.209
303.213
303.171
303.248
303.246
303.289
303.291
303.243
303.238
303.287
303.284
303.197
303.141
303.198
303.147
303.195
303.198
303.158
303.222
303.22
303.262
303.264
303.218
303.214
303.26
303.257
303.174
303.123
303.175
303.128
303.173
303.176
303.139
303.372
303.372
303.344
303.344
303.372
303.371
303.343
303.342
303.393
303.408
303.391
303.405
303.391
303.388
303.401
303.374
303.374
303.346
303.346
303.373
303.371
303.345
303.343
303.395
303.408
303.394
303.405
303.392
303.389
303.4
303.375
303.374
303.346
303.347
303.372
303.371
303.345
303.343
303.394
303.402
303.392
303.399
303.389
303.386
303.395
303.368
303.367
303.339
303.34
303.364
303.362
303.337
303.335
303.385
303.389
303.383
303.386
303.379
303.375
303.382
303.352
303.351
303.324
303.326
303.348
303.345
303.322
303.32
303.368
303.369
303.365
303.367
303.361
303.356
303.364
303.324
303.323
303.297
303.298
303.32
303.317
303.295
303.293
303.339
303.344
303.337
303.342
303.334
303.329
303.338
303.033
303.04
303.054
303.066
303.084
303.096
303.126
303.136
303.118
303.129
303.085
303.096
303.061
303.072
303.042
303.049
303.094
303.109
303.114
303.134
303.144
303.164
303.163
303.187
303.007
302.964
303.015
302.975
303.027
302.985
303.039
303
303.07
303.047
303.091
303.062
303.011
303.035
303.139
303.175
303.159
303.186
303.185
303.216
303.209
303.232
303.095
303.133
303.117
303.146
303.06
303.097
302.915
302.885
302.935
302.904
302.936
302.899
302.96
302.926
302.967
302.917
303.004
302.958
303.033
302.987
303.066
303.019
303.105
303.112
303.137
303.14
303.172
303.181
303.197
303.206
303.078
303.07
303.041
303.039
303.164
303.164
303.188
303.184
303.221
303.228
303.242
303.246
303.109
303.095
303.136
303.115
303.021
302.965
303
302.937
302.98
302.923
302.968
302.903
303.054
303
303.026
302.964
303.084
303.03
303.047
302.986
302.845
302.78
302.834
302.77
302.865
302.805
302.845
302.784
302.897
302.851
302.863
302.813
303.06
303.139
302.988
302.933
302.875
303.128
303.044
302.958
302.9
302.837
303.148
303.074
303.001
302.933
302.866
302.721
302.691
302.689
302.663
302.751
302.718
302.709
302.681
302.804
302.766
302.744
302.711
303.109
303.078
303.017
302.976
302.933
302.89
302.866
302.823
302.777
302.734
303.135
303.11
303.051
303.007
302.973
302.923
302.895
302.841
302.797
302.741
303.09
303.041
303.125
303.082
303.172
303.158
303.204
303.196
303.042
302.985
303.008
302.947
303.155
303.112
303.175
303.133
303.229
303.221
303.248
303.242
303.073
303.015
303.093
303.036
302.948
302.879
302.831
302.748
302.92
302.848
302.812
302.731
302.973
302.907
302.849
302.767
302.997
302.93
302.874
302.797
302.682
302.669
302.645
302.676
302.671
302.649
302.702
302.686
302.66
302.691
302.685
302.661
302.742
302.72
302.692
302.714
302.703
302.677
303.04
302.997
302.951
302.931
302.893
302.853
302.848
302.816
302.78
302.789
302.762
302.728
302.731
302.717
302.685
303.075
303.026
302.974
302.949
302.899
302.848
302.864
302.82
302.774
302.795
302.762
302.721
302.732
302.713
302.677
303.235
303.25
303.248
303.269
303.194
303.213
303.21
303.234
303.242
303.274
303.246
303.275
303.252
303.28
303.259
303.285
303.281
303.267
303.289
303.274
303.286
303.297
303.284
303.303
303.253
303.273
303.29
303.307
303.302
303.319
303.304
303.321
303.306
303.335
303.301
303.327
303.311
303.34
303.31
303.337
303.315
303.347
303.322
303.351
303.328
303.354
303.343
303.364
303.271
303.284
303.289
303.304
303.228
303.24
303.249
303.262
303.317
303.335
303.301
303.317
303.306
303.321
303.324
303.336
303.269
303.281
303.288
303.298
303.332
303.35
303.348
303.363
303.34
303.365
303.355
303.37
303.327
303.354
303.34
303.357
303.353
303.375
303.368
303.381
303.366
303.385
303.38
303.39
303.305
303.291
303.332
303.317
303.306
303.291
303.334
303.319
303.306
303.293
303.337
303.324
303.257
303.206
303.289
303.314
303.341
303.196
303.246
303.276
303.301
303.329
303.216
303.266
303.301
303.325
303.344
303.267
303.233
303.293
303.26
303.269
303.237
303.297
303.266
303.274
303.244
303.304
303.275
303.182
303.157
303.236
303.209
303.266
303.239
303.289
303.262
303.316
303.289
303.208
303.192
303.258
303.243
303.293
303.274
303.315
303.292
303.332
303.304
303.287
303.281
303.307
303.307
303.241
303.237
303.265
303.268
303.334
303.327
303.317
303.305
303.323
303.327
303.338
303.343
303.284
303.291
303.301
303.309
303.348
303.345
303.362
303.36
303.351
303.336
303.358
303.336
303.335
303.317
303.346
303.321
303.364
303.353
303.369
303.349
303.375
303.365
303.379
303.362
303.188
303.143
303.101
303.205
303.154
303.111
303.195
303.149
303.106
303.212
303.161
303.117
303.204
303.159
303.115
303.224
303.171
303.123
303.122
303.079
303.033
303.174
303.129
303.082
303.203
303.156
303.108
303.223
303.177
303.13
303.237
303.181
303.129
303.165
303.118
303.065
303.214
303.166
303.113
303.241
303.19
303.135
303.253
303.2
303.144
303.25
303.191
303.134
303.347
303.327
303.276
303.183
303.338
303.317
303.265
303.171
303.351
303.33
303.279
303.185
303.345
303.323
303.27
303.175
303.355
303.334
303.285
303.194
303.358
303.334
303.281
303.188
303.356
303.33
303.273
303.178
303.362
303.332
303.274
303.177
303.367
303.341
303.29
303.198
303.365
303.338
303.291
303.208
303.359
303.336
303.29
303.204
303.356
303.332
303.288
303.21
303.374
303.345
303.29
303.194
303.373
303.343
303.294
303.208
303.38
303.35
303.292
303.197
303.38
303.348
303.297
303.212
303.345
303.328
303.282
303.194
303.333
303.319
303.279
303.202
303.346
303.329
303.283
303.196
303.334
303.319
303.279
303.203
303.348
303.329
303.285
303.2
303.336
303.32
303.28
303.205
303.348
303.328
303.286
303.206
303.339
303.32
303.281
303.208
303.347
303.325
303.285
303.212
303.315
303.303
303.267
303.212
303.294
303.284
303.247
303.196
303.317
303.304
303.268
303.213
303.297
303.285
303.248
303.196
303.321
303.306
303.27
303.214
303.301
303.287
303.249
303.197
303.327
303.31
303.272
303.216
303.306
303.29
303.251
303.198
303.335
303.314
303.275
303.219
303.313
303.293
303.253
303.2
303.35
303.323
303.279
303.221
303.33
303.303
303.259
303.204
303.343
303.318
303.277
303.22
303.322
303.298
303.256
303.202
303.357
303.327
303.281
303.222
303.338
303.308
303.262
303.206
303.363
303.331
303.284
303.224
303.346
303.312
303.265
303.209
303.041
302.927
302.83
302.75
302.69
303.034
302.921
302.824
302.745
302.684
303.042
302.927
302.83
302.751
302.69
303.035
302.922
302.825
302.746
302.685
303.044
302.928
302.83
302.751
302.69
303.041
302.926
302.829
302.75
302.689
303.038
302.923
302.826
302.746
302.685
303.039
302.925
302.827
302.747
302.686
303.045
302.929
302.831
302.751
302.69
303.039
302.92
302.822
302.743
302.682
303.043
302.927
302.829
302.749
302.688
303.037
302.918
302.82
302.741
302.68
303.045
302.929
302.83
302.751
302.69
303.038
302.919
302.821
302.741
302.68
303.047
302.93
302.831
302.752
302.691
303.039
302.919
302.82
302.741
302.68
303.04
302.924
302.827
302.748
302.687
303.032
302.914
302.817
302.738
302.677
303.041
302.924
302.826
302.747
302.686
303.032
302.914
302.816
302.737
302.677
303.04
302.923
302.825
302.746
302.685
303.032
302.914
302.816
302.737
302.676
303.038
302.919
302.821
302.742
302.681
303.031
302.912
302.814
302.735
302.674
303.033
302.914
302.816
302.737
302.676
302.554
302.535
302.562
302.544
302.578
302.557
302.597
302.573
302.617
302.588
302.647
302.615
302.632
302.6
302.663
302.631
302.679
302.65
302.354
302.135
301.952
301.81
301.713
302.357
302.137
301.952
301.808
301.71
302.358
302.137
301.953
301.811
301.714
302.36
302.138
301.953
301.809
301.711
302.365
302.141
301.956
301.813
301.715
302.368
302.142
301.955
301.811
301.712
302.375
302.147
301.96
301.816
301.718
302.377
302.148
301.959
301.813
301.715
302.387
302.155
301.965
301.82
301.721
302.387
302.154
301.964
301.817
301.718
302.413
302.174
301.98
301.831
301.731
302.411