/*--------------------------------*- C++ -*----------------------------------*\
  =========                 |
  \\      /  F ield         | OpenFOAM: The Open Source CFD Toolbox
   \\    /   O peration     | Website:  https://openfoam.org
    \\  /    A nd           | Version:  12
     \\/     M anipulation  |
\*---------------------------------------------------------------------------*/
FoamFile
{
    format      ascii;
    class       volScalarField;
    location    "60";
    object      p;
}
// * * * * * * * * * * * * * * * * * * * * * * * * * * * * * * * * * * * * * //

dimensions      [0 2 -2 0 0 0 0];

internalField   nonuniform List<scalar> 
4480
(
0.0109621
0.0109643
0.0109689
0.0109754
0.0109835
0.0109927
0.0110025
0.0110122
0.011021
0.011028
0.0110321
0.0110323
0.0110279
0.011018
0.0110023
0.0109806
0.010953
0.0109201
0.0108824
0.010841
0.0107967
0.0107507
0.010704
0.0106575
0.0106119
0.010568
0.0105263
0.0104871
0.0104508
0.0104176
0.0103875
0.0103602
0.0103359
0.0103142
0.0102949
0.010278
0.0102631
0.0102501
0.0102387
0.0102288
0.0102202
0.0102127
0.0102062
0.0102005
0.0101956
0.0101913
0.0101875
0.0101841
0.0101811
0.0101785
0.0101761
0.010174
0.0101721
0.0101703
0.0101687
0.0101672
0.0101658
0.0101644
0.0101632
0.010162
0.0101608
0.0101597
0.0101587
0.0101576
0.0101566
0.0101556
0.0101546
0.0101536
0.0101526
0.0101516
0.0101506
0.0101496
0.0101486
0.0101476
0.0101465
0.0101454
0.0101444
0.0101433
0.0101421
0.010141
0.0101398
0.0101386
0.0101374
0.0101362
0.0101349
0.0101336
0.0101322
0.0101309
0.0101295
0.0101281
0.0101266
0.0101251
0.0101236
0.010122
0.0101204
0.0101187
0.010117
0.0101152
0.0101134
0.0101115
0.0101095
0.0101074
0.0101053
0.010103
0.0101006
0.0100981
0.0100955
0.0100926
0.0100895
0.0100862
0.0100827
0.0100787
0.0100744
0.0100697
0.0100644
0.0100585
0.0100519
0.0100448
0.0100375
0.0100314
0.0100284
0.0100308
0.0100633
0.0102635
0.0108315
0.0105224
0.00445232
0.00383456
0.0039708
0.00479405
0.0111523
0.0113431
0.0106583
0.010387
0.0103037
0.0102599
0.0102283
0.0102056
0.0101864
0.0101611
0.0109597
0.0109614
0.0109641
0.0109679
0.0109726
0.0109778
0.0109831
0.010988
0.0109919
0.010994
0.0109937
0.0109901
0.0109825
0.0109705
0.0109537
0.0109319
0.0109053
0.0108744
0.0108396
0.0108018
0.0107619
0.0107205
0.0106788
0.0106373
0.0105967
0.0105577
0.0105206
0.0104858
0.0104535
0.0104238
0.0103968
0.0103723
0.0103502
0.0103304
0.0103127
0.010297
0.010283
0.0102705
0.0102594
0.0102496
0.0102408
0.010233
0.010226
0.0102198
0.0102142
0.0102091
0.0102045
0.0102004
0.0101965
0.010193
0.0101898
0.0101869
0.0101841
0.0101815
0.0101791
0.0101769
0.0101747
0.0101727
0.0101708
0.010169
0.0101673
0.0101656
0.010164
0.0101625
0.010161
0.0101596
0.0101582
0.0101568
0.0101555
0.0101542
0.0101529
0.0101516
0.0101503
0.0101491
0.0101478
0.0101465
0.0101453
0.010144
0.0101427
0.0101414
0.0101401
0.0101388
0.0101375
0.0101361
0.0101347
0.0101333
0.0101318
0.0101304
0.0101289
0.0101273
0.0101257
0.0101241
0.0101224
0.0101207
0.0101189
0.0101171
0.0101151
0.0101131
0.010111
0.0101089
0.0101066
0.0101041
0.0101016
0.0100988
0.0100959
0.0100927
0.0100893
0.0100856
0.0100816
0.0100771
0.0100721
0.0100666
0.0100603
0.0100531
0.0100449
0.0100353
0.0100241
0.0100109
0.00999497
0.00997537
0.00994947
0.00991055
0.0098481
0.00975194
0.00953693
0.00871572
0.00706085
0.00676847
0.00693095
0.00746667
0.00920411
0.00996124
0.0101089
0.0101552
0.0101768
0.0101799
0.0101746
0.0101677
0.0101588
0.0101349
0.0109557
0.0109579
0.0109605
0.0109638
0.0109679
0.0109725
0.0109772
0.0109814
0.0109846
0.0109861
0.0109851
0.0109809
0.0109728
0.0109603
0.010943
0.0109208
0.010894
0.0108629
0.0108282
0.0107905
0.0107508
0.0107099
0.0106686
0.0106278
0.0105881
0.01055
0.0105139
0.01048
0.0104487
0.0104201
0.010394
0.0103705
0.0103493
0.0103303
0.0103134
0.0102983
0.0102849
0.0102729
0.0102622
0.0102527
0.0102442
0.0102366
0.0102298
0.0102236
0.010218
0.0102129
0.0102083
0.010204
0.0102001
0.0101965
0.0101932
0.01019
0.0101871
0.0101844
0.0101818
0.0101794
0.0101771
0.0101749
0.0101729
0.0101709
0.010169
0.0101672
0.0101655
0.0101638
0.0101622
0.0101607
0.0101592
0.0101577
0.0101563
0.0101549
0.0101535
0.0101522
0.0101508
0.0101495
0.0101482
0.0101469
0.0101456
0.0101443
0.0101429
0.0101416
0.0101403
0.0101389
0.0101375
0.0101361
0.0101347
0.0101333
0.0101318
0.0101303
0.0101287
0.0101272
0.0101255
0.0101239
0.0101222
0.0101204
0.0101186
0.0101167
0.0101147
0.0101127
0.0101105
0.0101083
0.0101059
0.0101034
0.0101007
0.0100979
0.0100948
0.0100916
0.010088
0.0100841
0.0100798
0.0100751
0.0100698
0.0100639
0.0100572
0.0100495
0.0100406
0.0100302
0.0100177
0.0100026
0.00998376
0.00995941
0.00992619
0.00987755
0.0098013
0.00967369
0.00943463
0.00895855
0.00831762
0.00813833
0.00825786
0.00861052
0.00930934
0.00977548
0.0099854
0.0100809
0.0101256
0.0101443
0.01015
0.0101503
0.0101451
0.0101177
0.0109508
0.0109536
0.0109561
0.0109594
0.0109634
0.010968
0.0109726
0.0109768
0.0109799
0.0109813
0.0109801
0.0109756
0.0109671
0.010954
0.0109361
0.0109132
0.0108855
0.0108536
0.010818
0.0107797
0.0107394
0.0106981
0.0106567
0.010616
0.0105765
0.0105389
0.0105034
0.0104704
0.01044
0.0104122
0.0103871
0.0103646
0.0103443
0.0103263
0.0103102
0.0102959
0.0102832
0.0102719
0.0102618
0.0102528
0.0102448
0.0102375
0.010231
0.0102251
0.0102197
0.0102148
0.0102102
0.010206
0.0102022
0.0101985
0.0101952
0.010192
0.010189
0.0101862
0.0101836
0.0101811
0.0101787
0.0101764
0.0101743
0.0101722
0.0101703
0.0101684
0.0101666
0.0101648
0.0101632
0.0101615
0.01016
0.0101584
0.0101569
0.0101555
0.0101541
0.0101526
0.0101513
0.0101499
0.0101485
0.0101472
0.0101458
0.0101445
0.0101431
0.0101418
0.0101404
0.010139
0.0101376
0.0101362
0.0101348
0.0101333
0.0101318
0.0101303
0.0101287
0.0101271
0.0101255
0.0101238
0.0101221
0.0101203
0.0101184
0.0101165
0.0101145
0.0101125
0.0101103
0.010108
0.0101056
0.0101031
0.0101004
0.0100975
0.0100944
0.0100911
0.0100874
0.0100835
0.0100791
0.0100743
0.010069
0.0100629
0.0100561
0.0100483
0.0100391
0.0100284
0.0100156
0.00999992
0.00998033
0.00995506
0.00992125
0.00987417
0.00980619
0.00970477
0.00954641
0.00929624
0.0089953
0.00890153
0.00898957
0.00921212
0.00956361
0.0098239
0.00997218
0.0100544
0.0100996
0.0101228
0.0101334
0.0101373
0.0101342
0.0101048
0.0109451
0.0109482
0.0109507
0.0109539
0.010958
0.0109625
0.0109672
0.0109714
0.0109745
0.0109757
0.0109743
0.0109694
0.0109602
0.0109463
0.0109272
0.0109031
0.0108742
0.010841
0.0108042
0.0107648
0.0107237
0.0106819
0.0106402
0.0105995
0.0105603
0.0105233
0.0104886
0.0104566
0.0104273
0.0104008
0.010377
0.0103556
0.0103366
0.0103198
0.0103048
0.0102916
0.0102799
0.0102695
0.0102602
0.0102519
0.0102445
0.0102378
0.0102317
0.0102262
0.0102211
0.0102164
0.010212
0.010208
0.0102042
0.0102006
0.0101973
0.0101941
0.0101911
0.0101882
0.0101855
0.0101829
0.0101805
0.0101781
0.0101759
0.0101737
0.0101717
0.0101697
0.0101678
0.0101659
0.0101642
0.0101625
0.0101608
0.0101592
0.0101577
0.0101561
0.0101547
0.0101532
0.0101518
0.0101503
0.0101489
0.0101475
0.0101461
0.0101448
0.0101434
0.010142
0.0101406
0.0101392
0.0101377
0.0101363
0.0101348
0.0101334
0.0101318
0.0101303
0.0101287
0.0101271
0.0101255
0.0101238
0.010122
0.0101202
0.0101184
0.0101164
0.0101144
0.0101123
0.0101101
0.0101078
0.0101054
0.0101028
0.0101001
0.0100972
0.0100941
0.0100907
0.0100871
0.0100831
0.0100787
0.0100739
0.0100685
0.0100624
0.0100556
0.0100477
0.0100386
0.0100279
0.0100152
0.00999978
0.00998069
0.00995654
0.00992524
0.00988372
0.00982784
0.00975229
0.00964989
0.00951426
0.00937354
0.0093343
0.00939955
0.00953758
0.00972207
0.00987459
0.00997741
0.0100435
0.0100844
0.010108
0.0101204
0.0101263
0.0101246
0.0100956
0.0109389
0.0109419
0.0109444
0.0109477
0.0109518
0.0109565
0.0109613
0.0109656
0.0109688
0.01097
0.0109683
0.0109628
0.0109528
0.0109376
0.0109172
0.0108914
0.0108607
0.0108257
0.0107873
0.0107464
0.0107041
0.0106614
0.0106193
0.0105784
0.0105395
0.010503
0.0104693
0.0104384
0.0104105
0.0103854
0.010363
0.0103432
0.0103256
0.0103102
0.0102967
0.0102848
0.0102743
0.010265
0.0102568
0.0102494
0.0102428
0.0102368
0.0102313
0.0102263
0.0102217
0.0102173
0.0102132
0.0102094
0.0102058
0.0102023
0.010199
0.0101959
0.0101929
0.01019
0.0101873
0.0101847
0.0101821
0.0101797
0.0101774
0.0101752
0.010173
0.010171
0.010169
0.0101671
0.0101652
0.0101635
0.0101617
0.0101601
0.0101584
0.0101568
0.0101553
0.0101538
0.0101523
0.0101508
0.0101494
0.0101479
0.0101465
0.0101451
0.0101437
0.0101422
0.0101408
0.0101394
0.0101379
0.0101365
0.010135
0.0101335
0.0101319
0.0101304
0.0101288
0.0101272
0.0101255
0.0101238
0.010122
0.0101202
0.0101184
0.0101164
0.0101144
0.0101123
0.0101101
0.0101078
0.0101054
0.0101028
0.0101001
0.0100972
0.010094
0.0100907
0.0100871
0.0100831
0.0100788
0.010074
0.0100687
0.0100628
0.010056
0.0100484
0.0100396
0.0100293
0.0100172
0.0100027
0.00998512
0.00996344
0.00993633
0.00990208
0.00985877
0.00980466
0.00973892
0.00966432
0.00959952
0.00958737
0.00963431
0.00972247
0.00982649
0.00992
0.00999197
0.0100433
0.0100778
0.0100994
0.0101118
0.0101183
0.0101176
0.0100909
0.010932
0.0109345
0.010937
0.0109405
0.0109448
0.0109498
0.0109549
0.0109596
0.0109629
0.0109641
0.010962
0.0109559
0.0109447
0.0109281
0.0109057
0.0108778
0.0108447
0.0108074
0.0107668
0.010724
0.0106802
0.0106364
0.0105936
0.0105525
0.0105139
0.010478
0.0104453
0.0104157
0.0103893
0.0103659
0.0103452
0.0103271
0.0103113
0.0102976
0.0102856
0.0102753
0.0102662
0.0102583
0.0102513
0.0102451
0.0102395
0.0102344
0.0102297
0.0102253
0.0102212
0.0102173
0.0102137
0.0102102
0.0102068
0.0102035
0.0102004
0.0101974
0.0101944
0.0101916
0.0101889
0.0101862
0.0101837
0.0101812
0.0101789
0.0101766
0.0101744
0.0101722
0.0101702
0.0101682
0.0101663
0.0101644
0.0101626
0.0101609
0.0101592
0.0101576
0.010156
0.0101544
0.0101528
0.0101513
0.0101498
0.0101484
0.0101469
0.0101454
0.010144
0.0101425
0.0101411
0.0101396
0.0101381
0.0101367
0.0101352
0.0101336
0.0101321
0.0101305
0.0101289
0.0101273
0.0101256
0.0101239
0.0101222
0.0101203
0.0101185
0.0101165
0.0101145
0.0101124
0.0101102
0.0101079
0.0101055
0.010103
0.0101003
0.0100974
0.0100944
0.0100911
0.0100875
0.0100836
0.0100794
0.0100748
0.0100697
0.010064
0.0100576
0.0100503
0.0100421
0.0100326
0.0100215
0.0100084
0.00999296
0.00997443
0.00995213
0.00992528
0.00989328
0.00985611
0.00981506
0.00977428
0.00974479
0.00974457
0.00977778
0.00983598
0.00990148
0.00996126
0.0100113
0.0100499
0.0100777
0.0100961
0.0101073
0.0101136
0.0101134
0.0100906
0.0109245
0.0109261
0.0109286
0.0109322
0.0109369
0.0109423
0.0109479
0.0109529
0.0109565
0.0109577
0.0109553
0.0109482
0.0109357
0.0109171
0.0108923
0.0108616
0.0108257
0.0107855
0.0107422
0.0106971
0.0106514
0.0106063
0.0105627
0.0105215
0.0104832
0.0104481
0.0104166
0.0103885
0.0103639
0.0103423
0.0103236
0.0103075
0.0102937
0.0102819
0.0102719
0.0102633
0.010256
0.0102496
0.010244
0.0102391
0.0102347
0.0102306
0.0102268
0.0102233
0.0102199
0.0102166
0.0102134
0.0102103
0.0102073
0.0102043
0.0102014
0.0101985
0.0101957
0.010193
0.0101903
0.0101877
0.0101851
0.0101826
0.0101802
0.0101779
0.0101756
0.0101735
0.0101713
0.0101693
0.0101673
0.0101654
0.0101636
0.0101618
0.01016
0.0101583
0.0101566
0.010155
0.0101534
0.0101519
0.0101503
0.0101488
0.0101473
0.0101458
0.0101443
0.0101429
0.0101414
0.0101399
0.0101384
0.0101369
0.0101354
0.0101339
0.0101323
0.0101307
0.0101291
0.0101275
0.0101258
0.0101241
0.0101224
0.0101206
0.0101187
0.0101168
0.0101148
0.0101127
0.0101105
0.0101083
0.0101059
0.0101034
0.0101008
0.010098
0.010095
0.0100918
0.0100884
0.0100847
0.0100807
0.0100763
0.0100714
0.0100661
0.0100601
0.0100534
0.0100459
0.0100373
0.0100275
0.0100162
0.0100031
0.00998792
0.0099703
0.00995004
0.00992723
0.00990252
0.00987757
0.00985575
0.00984323
0.00984795
0.00987195
0.00991104
0.00995556
0.00999626
0.0100313
0.0100599
0.0100815
0.0100966
0.0101063
0.010112
0.0101122
0.0100941
0.0109163
0.0109164
0.0109189
0.0109228
0.0109279
0.0109337
0.0109398
0.0109454
0.0109494
0.0109505
0.0109476
0.0109395
0.0109252
0.0109042
0.0108765
0.0108424
0.010803
0.0107594
0.010713
0.0106652
0.0106174
0.0105709
0.0105266
0.0104852
0.0104474
0.0104133
0.0103832
0.010357
0.0103344
0.0103149
0.0102985
0.0102846
0.0102731
0.0102635
0.0102556
0.0102491
0.0102436
0.010239
0.0102351
0.0102316
0.0102285
0.0102256
0.0102229
0.0102203
0.0102177
0.0102151
0.0102125
0.0102099
0.0102073
0.0102047
0.010202
0.0101994
0.0101967
0.0101941
0.0101915
0.0101889
0.0101864
0.010184
0.0101816
0.0101792
0.0101769
0.0101747
0.0101725
0.0101704
0.0101684
0.0101664
0.0101645
0.0101627
0.0101608
0.0101591
0.0101574
0.0101557
0.0101541
0.0101525
0.0101509
0.0101493
0.0101478
0.0101463
0.0101448
0.0101433
0.0101418
0.0101402
0.0101387
0.0101372
0.0101357
0.0101342
0.0101326
0.010131
0.0101294
0.0101278
0.0101261
0.0101244
0.0101227
0.0101209
0.010119
0.0101171
0.0101152
0.0101131
0.010111
0.0101088
0.0101065
0.0101041
0.0101015
0.0100988
0.010096
0.0100929
0.0100897
0.0100862
0.0100824
0.0100783
0.0100738
0.0100689
0.0100635
0.0100575
0.0100508
0.0100433
0.0100349
0.0100254
0.0100147
0.0100027
0.0099892
0.00997442
0.00995867
0.00994273
0.00992806
0.00991697
0.00991287
0.00991939
0.00993733
0.00996428
0.0099953
0.0100247
0.0100501
0.0100712
0.0100879
0.0101
0.0101081
0.010113
0.0101136
0.0101005
0.010907
0.0109052
0.0109076
0.0109118
0.0109173
0.0109238
0.0109306
0.0109368
0.0109411
0.0109423
0.0109388
0.0109294
0.0109129
0.010889
0.0108576
0.0108196
0.0107761
0.0107285
0.0106786
0.0106279
0.0105779
0.01053
0.010485
0.0104437
0.0104066
0.0103738
0.0103455
0.0103214
0.0103011
0.0102841
0.0102702
0.0102589
0.0102499
0.0102428
0.0102372
0.0102329
0.0102295
0.0102268
0.0102247
0.0102228
0.0102212
0.0102196
0.0102181
0.0102165
0.0102148
0.010213
0.0102111
0.010209
0.0102069
0.0102047
0.0102024
0.0102
0.0101975
0.0101951
0.0101926
0.0101901
0.0101877
0.0101852
0.0101828
0.0101805
0.0101782
0.0101759
0.0101737
0.0101716
0.0101695
0.0101675
0.0101655
0.0101636
0.0101617
0.0101599
0.0101582
0.0101564
0.0101547
0.0101531
0.0101515
0.0101499
0.0101483
0.0101468
0.0101452
0.0101437
0.0101422
0.0101406
0.0101391
0.0101376
0.0101361
0.0101345
0.0101329
0.0101314
0.0101298
0.0101281
0.0101265
0.0101248
0.010123
0.0101213
0.0101195
0.0101176
0.0101157
0.0101137
0.0101116
0.0101095
0.0101073
0.0101049
0.0101025
0.0100999
0.0100972
0.0100944
0.0100913
0.0100881
0.0100846
0.0100808
0.0100768
0.0100724
0.0100676
0.0100623
0.0100566
0.0100502
0.0100432
0.0100355
0.010027
0.0100178
0.0100078
0.00999743
0.00998693
0.00997707
0.00996891
0.00996398
0.00996412
0.00997102
0.00998486
0.0100041
0.0100261
0.0100477
0.0100669
0.010083
0.0100959
0.0101055
0.0101122
0.0101163
0.0101173
0.010109
0.0108965
0.0108922
0.0108945
0.0108992
0.0109052
0.0109122
0.0109198
0.0109267
0.0109315
0.0109327
0.0109285
0.0109175
0.0108984
0.010871
0.0108355
0.0107928
0.0107446
0.0106926
0.0106388
0.010585
0.0105327
0.0104834
0.010438
0.0103971
0.0103611
0.0103301
0.0103039
0.0102822
0.0102646
0.0102504
0.0102393
0.0102308
0.0102245
0.0102201
0.010217
0.0102151
0.010214
0.0102134
0.0102131
0.010213
0.0102129
0.0102128
0.0102125
0.010212
0.0102113
0.0102104
0.0102092
0.0102078
0.0102062
0.0102044
0.0102025
0.0102004
0.0101982
0.0101959
0.0101936
0.0101912
0.0101889
0.0101865
0.0101841
0.0101817
0.0101794
0.0101771
0.0101749
0.0101727
0.0101706
0.0101685
0.0101665
0.0101646
0.0101627
0.0101608
0.010159
0.0101572
0.0101555
0.0101538
0.0101521
0.0101505
0.0101489
0.0101473
0.0101457
0.0101442
0.0101426
0.0101411
0.0101395
0.010138
0.0101365
0.0101349
0.0101333
0.0101318
0.0101302
0.0101285
0.0101269
0.0101252
0.0101235
0.0101218
0.01012
0.0101182
0.0101163
0.0101144
0.0101124
0.0101104
0.0101082
0.010106
0.0101037
0.0101013
0.0100988
0.0100961
0.0100933
0.0100903
0.0100872
0.0100838
0.0100802
0.0100764
0.0100722
0.0100677
0.0100629
0.0100577
0.010052
0.010046
0.0100395
0.0100327
0.0100256
0.0100186
0.010012
0.0100063
0.0100023
0.0100009
0.0100032
0.0100098
0.0100208
0.0100352
0.0100512
0.0100673
0.0100819
0.0100945
0.0101047
0.0101124
0.0101179
0.0101215
0.0101228
0.0101189
0.0108841
0.0108768
0.0108791
0.0108843
0.010891
0.0108986
0.0109069
0.0109147
0.0109202
0.0109214
0.0109164
0.0109035
0.0108814
0.0108499
0.0108095
0.0107616
0.0107081
0.0106512
0.0105933
0.0105363
0.0104819
0.0104315
0.010386
0.0103459
0.0103114
0.0102825
0.0102589
0.0102401
0.0102254
0.0102142
0.0102062
0.0102008
0.0101975
0.0101959
0.0101956
0.0101962
0.0101974
0.010199
0.0102007
0.0102024
0.010204
0.0102053
0.0102064
0.010207
0.0102074
0.0102073
0.010207
0.0102062
0.0102052
0.0102039
0.0102024
0.0102006
0.0101987
0.0101967
0.0101945
0.0101923
0.01019
0.0101877
0.0101854
0.010183
0.0101807
0.0101784
0.0101762
0.0101739
0.0101718
0.0101697
0.0101676
0.0101656
0.0101636
0.0101617
0.0101599
0.010158
0.0101563
0.0101545
0.0101528
0.0101512
0.0101495
0.0101479
0.0101463
0.0101447
0.0101431
0.0101416
0.01014
0.0101385
0.0101369
0.0101354
0.0101338
0.0101322
0.0101306
0.010129
0.0101274
0.0101258
0.0101241
0.0101224
0.0101207
0.0101189
0.0101171
0.0101152
0.0101133
0.0101114
0.0101094
0.0101073
0.0101051
0.0101029
0.0101006
0.0100981
0.0100956
0.0100929
0.0100901
0.0100872
0.0100841
0.0100808
0.0100773
0.0100736
0.0100696
0.0100655
0.0100611
0.0100565
0.0100518
0.010047
0.0100423
0.0100379
0.010034
0.0100312
0.0100299
0.0100306
0.0100339
0.0100401
0.0100491
0.0100601
0.0100723
0.0100844
0.0100957
0.0101056
0.0101138
0.0101202
0.0101249
0.010128
0.0101296
0.0101295
0.0108695
0.0108587
0.0108609
0.0108668
0.0108743
0.0108828
0.0108917
0.0109004
0.0109066
0.010908
0.0109021
0.0108871
0.0108616
0.0108254
0.0107794
0.0107255
0.0106662
0.0106041
0.0105419
0.0104818
0.0104256
0.0103745
0.0103293
0.0102905
0.0102581
0.0102318
0.0102112
0.0101956
0.0101842
0.0101764
0.0101717
0.0101696
0.0101694
0.0101708
0.0101733
0.0101765
0.0101802
0.010184
0.0101878
0.0101914
0.0101947
0.0101975
0.0101999
0.0102018
0.0102032
0.0102041
0.0102045
0.0102045
0.0102041
0.0102033
0.0102022
0.0102008
0.0101992
0.0101974
0.0101954
0.0101933
0.0101911
0.0101889
0.0101866
0.0101843
0.010182
0.0101797
0.0101774
0.0101752
0.010173
0.0101708
0.0101687
0.0101667
0.0101647
0.0101627
0.0101608
0.0101589
0.0101571
0.0101553
0.0101536
0.0101519
0.0101502
0.0101485
0.0101469
0.0101453
0.0101437
0.0101421
0.0101406
0.010139
0.0101374
0.0101359
0.0101343
0.0101328
0.0101312
0.0101296
0.010128
0.0101264
0.0101247
0.0101231
0.0101214
0.0101197
0.010118
0.0101162
0.0101144
0.0101126
0.0101107
0.0101087
0.0101067
0.0101047
0.0101026
0.0101004
0.0100981
0.0100958
0.0100933
0.0100908
0.0100882
0.0100854
0.0100826
0.0100796
0.0100766
0.0100734
0.0100702
0.0100669
0.0100637
0.0100605
0.0100577
0.0100552
0.0100534
0.0100526
0.010053
0.0100549
0.0100587
0.0100644
0.0100719
0.0100807
0.0100902
0.0100996
0.0101085
0.0101164
0.0101231
0.0101285
0.0101326
0.0101354
0.0101373
0.0101405
0.0108519
0.0108371
0.0108392
0.0108459
0.0108544
0.0108642
0.010874
0.0108832
0.0108903
0.010892
0.0108853
0.010868
0.0108385
0.010797
0.0107448
0.0106844
0.0106188
0.0105513
0.0104848
0.0104218
0.0103641
0.0103129
0.0102687
0.0102318
0.010202
0.0101788
0.0101618
0.0101498
0.0101419
0.0101378
0.0101366
0.0101379
0.010141
0.0101454
0.0101508
0.0101567
0.0101628
0.0101689
0.0101748
0.0101802
0.0101852
0.0101896
0.0101933
0.0101964
0.0101989
0.0102007
0.0102019
0.0102026
0.0102028
0.0102026
0.0102019
0.0102009
0.0101996
0.010198
0.0101963
0.0101943
0.0101923
0.0101901
0.0101879
0.0101856
0.0101833
0.010181
0.0101787
0.0101765
0.0101742
0.010172
0.0101699
0.0101678
0.0101657
0.0101637
0.0101618
0.0101598
0.010158
0.0101561
0.0101544
0.0101526
0.0101509
0.0101492
0.0101476
0.0101459
0.0101443
0.0101427
0.0101411
0.0101396
0.010138
0.0101364
0.0101349
0.0101333
0.0101318
0.0101302
0.0101286
0.0101271
0.0101255
0.0101239
0.0101222
0.0101206
0.0101189
0.0101173
0.0101156
0.0101138
0.0101121
0.0101103
0.0101085
0.0101066
0.0101047
0.0101028
0.0101008
0.0100988
0.0100968
0.0100947
0.0100925
0.0100903
0.0100881
0.0100858
0.0100836
0.0100813
0.0100791
0.0100769
0.010075
0.0100732
0.0100718
0.0100708
0.0100705
0.010071
0.0100725
0.0100752
0.0100792
0.0100844
0.0100909
0.0100981
0.0101057
0.0101133
0.0101204
0.0101268
0.0101324
0.010137
0.0101407
0.0101433
0.0101456
0.0101514
0.0108304
0.0108114
0.0108134
0.0108209
0.0108306
0.0108419
0.0108532
0.0108629
0.0108706
0.0108729
0.0108656
0.0108458
0.0108121
0.0107646
0.0107055
0.0106379
0.0105658
0.0104928
0.0104223
0.0103568
0.0102982
0.0102474
0.0102049
0.0101706
0.0101441
0.0101246
0.0101115
0.0101034
0.0100994
0.010099
0.0101016
0.0101064
0.0101128
0.0101204
0.0101286
0.0101372
0.0101458
0.0101541
0.0101619
0.0101692
0.0101759
0.0101817
0.0101868
0.0101911
0.0101946
0.0101974
0.0101994
0.0102008
0.0102016
0.0102019
0.0102017
0.010201
0.0102
0.0101987
0.0101971
0.0101954
0.0101934
0.0101914
0.0101892
0.010187
0.0101847
0.0101824
0.0101801
0.0101778
0.0101755
0.0101733
0.0101711
0.0101689
0.0101668
0.0101648
0.0101628
0.0101608
0.0101589
0.010157
0.0101552
0.0101534
0.0101517
0.0101499
0.0101483
0.0101466
0.010145
0.0101433
0.0101417
0.0101402
0.0101386
0.010137
0.0101355
0.0101339
0.0101324
0.0101309
0.0101293
0.0101278
0.0101262
0.0101247
0.0101231
0.0101216
0.01012
0.0101184
0.0101168
0.0101152
0.0101136
0.010112
0.0101103
0.0101087
0.010107
0.0101054
0.0101037
0.010102
0.0101003
0.0100986
0.0100969
0.0100953
0.0100936
0.010092
0.0100905
0.010089
0.0100877
0.0100865
0.0100856
0.0100849
0.0100846
0.0100848
0.0100856
0.010087
0.0100893
0.0100924
0.0100964
0.0101013
0.0101069
0.010113
0.0101194
0.0101256
0.0101315
0.0101369
0.0101416
0.0101457
0.010149
0.0101515
0.0101541
0.010162
0.0108043
0.0107806
0.0107824
0.0107908
0.0108018
0.0108148
0.0108282
0.0108393
0.0108471
0.01085
0.0108424
0.0108202
0.0107819
0.010728
0.0106614
0.0105862
0.0105072
0.0104288
0.0103546
0.0102874
0.0102286
0.0101792
0.0101392
0.0101082
0.0100856
0.0100704
0.0100614
0.0100574
0.0100576
0.0100612
0.0100675
0.0100758
0.0100856
0.0100962
0.0101073
0.0101184
0.0101294
0.0101398
0.0101497
0.0101587
0.0101669
0.0101742
0.0101806
0.010186
0.0101905
0.0101942
0.010197
0.0101991
0.0102005
0.0102012
0.0102015
0.0102012
0.0102005
0.0101994
0.010198
0.0101964
0.0101946
0.0101926
0.0101905
0.0101883
0.0101861
0.0101838
0.0101815
0.0101791
0.0101768
0.0101746
0.0101723
0.0101701
0.010168
0.0101659
0.0101638
0.0101618
0.0101598
0.0101579
0.0101561
0.0101542
0.0101524
0.0101507
0.010149
0.0101473
0.0101456
0.010144
0.0101424
0.0101408
0.0101392
0.0101377
0.0101361
0.0101346
0.0101331
0.0101316
0.0101301
0.0101286
0.0101271
0.0101256
0.0101241
0.0101226
0.0101211
0.0101196
0.0101181
0.0101167
0.0101152
0.0101137
0.0101123
0.0101108
0.0101094
0.010108
0.0101066
0.0101053
0.0101039
0.0101026
0.0101014
0.0101002
0.0100991
0.0100981
0.0100972
0.0100965
0.0100959
0.0100956
0.0100955
0.0100957
0.0100963
0.0100973
0.0100989
0.010101
0.0101037
0.0101071
0.0101112
0.0101157
0.0101208
0.0101261
0.0101315
0.0101368
0.0101419
0.0101465
0.0101506
0.0101543
0.0101574
0.0101598
0.0101626
0.0101722
0.0107722
0.0107439
0.0107455
0.0107548
0.0107672
0.0107821
0.0107979
0.0108114
0.0108197
0.0108229
0.0108154
0.0107911
0.0107479
0.0106871
0.0106124
0.0105293
0.0104434
0.0103599
0.0102827
0.0102144
0.0101565
0.0101093
0.0100726
0.0100457
0.0100276
0.0100172
0.0100127
0.010013
0.0100173
0.010025
0.0100351
0.0100469
0.0100599
0.0100735
0.0100873
0.0101009
0.0101141
0.0101265
0.0101382
0.0101489
0.0101586
0.0101672
0.0101748
0.0101813
0.0101867
0.0101912
0.0101948
0.0101975
0.0101995
0.0102007
0.0102013
0.0102014
0.010201
0.0102002
0.010199
0.0101975
0.0101958
0.0101939
0.0101919
0.0101897
0.0101875
0.0101852
0.0101829
0.0101805
0.0101782
0.0101759
0.0101736
0.0101714
0.0101692
0.010167
0.0101649
0.0101628
0.0101608
0.0101589
0.010157
0.0101551
0.0101533
0.0101515
0.0101497
0.010148
0.0101463
0.0101447
0.0101431
0.0101415
0.0101399
0.0101383
0.0101368
0.0101353
0.0101338
0.0101323
0.0101308
0.0101294
0.0101279
0.0101265
0.0101251
0.0101236
0.0101223
0.0101209
0.0101195
0.0101182
0.0101169
0.0101156
0.0101143
0.0101131
0.0101119
0.0101107
0.0101096
0.0101085
0.0101076
0.0101066
0.0101058
0.0101051
0.0101045
0.010104
0.0101037
0.0101036
0.0101037
0.010104
0.0101047
0.0101056
0.0101069
0.0101086
0.0101107
0.0101133
0.0101164
0.0101199
0.0101239
0.0101283
0.0101329
0.0101377
0.0101424
0.0101471
0.0101514
0.0101555
0.0101592
0.0101626
0.0101656
0.0101679
0.0101709
0.0101818
0.010733
0.0107002
0.0107016
0.0107116
0.0107254
0.0107424
0.0107611
0.0107778
0.0107882
0.0107911
0.010784
0.0107581
0.0107101
0.010642
0.0105588
0.0104675
0.0103749
0.0102868
0.0102074
0.0101391
0.010083
0.0100391
0.0100066
0.00998455
0.0099715
0.00996608
0.00996633
0.009971
0.00997962
0.00999126
0.0100051
0.0100203
0.0100363
0.0100527
0.010069
0.0100849
0.0101001
0.0101145
0.0101278
0.0101401
0.0101511
0.0101609
0.0101696
0.0101771
0.0101834
0.0101887
0.0101929
0.0101962
0.0101987
0.0102004
0.0102014
0.0102018
0.0102016
0.010201
0.0102
0.0101987
0.0101971
0.0101953
0.0101933
0.0101911
0.0101889
0.0101866
0.0101843
0.0101819
0.0101796
0.0101772
0.0101749
0.0101726
0.0101704
0.0101681
0.010166
0.0101639
0.0101618
0.0101598
0.0101579
0.010156
0.0101541
0.0101523
0.0101505
0.0101488
0.0101471
0.0101454
0.0101438
0.0101422
0.0101406
0.010139
0.0101375
0.010136
0.0101345
0.0101331
0.0101316
0.0101302
0.0101288
0.0101274
0.0101261
0.0101247
0.0101234
0.0101222
0.0101209
0.0101197
0.0101185
0.0101174
0.0101163
0.0101153
0.0101143
0.0101134
0.0101126
0.0101118
0.0101111
0.0101106
0.0101102
0.0101099
0.0101097
0.0101097
0.0101099
0.0101104
0.010111
0.0101119
0.0101131
0.0101146
0.0101165
0.0101187
0.0101213
0.0101242
0.0101275
0.0101311
0.0101351
0.0101393
0.0101436
0.0101479
0.0101522
0.0101564
0.0101603
0.010164
0.0101674
0.0101706
0.0101735
0.0101758
0.0101789
0.0101908
0.0106852
0.0106484
0.0106497
0.0106602
0.0106752
0.0106944
0.0107163
0.0107371
0.0107514
0.0107548
0.010748
0.0107212
0.0106686
0.0105929
0.0105009
0.0104013
0.0103024
0.0102104
0.0101298
0.0100626
0.0100095
0.00996995
0.00994261
0.00992599
0.00991847
0.00991813
0.00992309
0.00993229
0.00994514
0.00996065
0.00997795
0.00999634
0.0100152
0.0100342
0.0100528
0.0100708
0.0100878
0.0101039
0.0101187
0.0101323
0.0101445
0.0101555
0.0101651
0.0101734
0.0101806
0.0101865
0.0101914
0.0101952
0.0101981
0.0102002
0.0102016
0.0102022
0.0102023
0.0102019
0.0102011
0.0101999
0.0101984
0.0101966
0.0101947
0.0101926
0.0101904
0.0101881
0.0101857
0.0101833
0.0101809
0.0101786
0.0101762
0.0101738
0.0101716
0.0101693
0.0101671
0.0101649
0.0101628
0.0101608
0.0101588
0.0101568
0.0101549
0.0101531
0.0101513
0.0101495
0.0101478
0.0101461
0.0101445
0.0101428
0.0101413
0.0101397
0.0101382
0.0101367
0.0101353
0.0101338
0.0101324
0.010131
0.0101297
0.0101284
0.0101271
0.0101258
0.0101246
0.0101235
0.0101223
0.0101212
0.0101202
0.0101192
0.0101183
0.0101175
0.0101167
0.0101161
0.0101155
0.010115
0.0101146
0.0101144
0.0101143
0.0101144
0.0101147
0.0101151
0.0101158
0.0101167
0.0101178
0.0101192
0.0101209
0.0101229
0.0101251
0.0101277
0.0101306
0.0101338
0.0101373
0.010141
0.0101449
0.0101489
0.010153
0.0101571
0.0101611
0.0101649
0.0101685
0.0101719
0.0101751
0.0101782
0.010181
0.0101833
0.0101866
0.0101992
0.0106277
0.0105878
0.0105888
0.0105995
0.0106154
0.0106367
0.0106621
0.0106879
0.0107076
0.0107142
0.0107072
0.0106804
0.0106239
0.0105405
0.0104394
0.0103316
0.0102267
0.0101318
0.0100511
0.00998644
0.00993758
0.00990331
0.00988184
0.00987124
0.00986959
0.0098743
0.00988382
0.00989754
0.00991449
0.00993366
0.00995421
0.00997549
0.00999696
0.0100182
0.0100388
0.0100586
0.0100773
0.0100948
0.0101109
0.0101257
0.010139
0.0101509
0.0101614
0.0101705
0.0101783
0.0101848
0.0101902
0.0101945
0.0101979
0.0102003
0.0102019
0.0102029
0.0102032
0.0102029
0.0102022
0.0102011
0.0101997
0.010198
0.0101961
0.010194
0.0101918
0.0101895
0.0101871
0.0101847
0.0101823
0.0101799
0.0101775
0.0101751
0.0101727
0.0101704
0.0101682
0.010166
0.0101638
0.0101617
0.0101597
0.0101577
0.0101558
0.0101539
0.010152
0.0101503
0.0101485
0.0101468
0.0101452
0.0101435
0.010142
0.0101404
0.0101389
0.0101374
0.010136
0.0101346
0.0101332
0.0101319
0.0101306
0.0101293
0.0101281
0.0101269
0.0101258
0.0101247
0.0101237
0.0101228
0.0101219
0.010121
0.0101203
0.0101197
0.0101191
0.0101186
0.0101183
0.0101181
0.010118
0.0101181
0.0101183
0.0101188
0.0101194
0.0101202
0.0101213
0.0101226
0.0101241
0.0101259
0.010128
0.0101303
0.010133
0.0101359
0.010139
0.0101424
0.010146
0.0101497
0.0101536
0.0101575
0.0101615
0.0101653
0.0101691
0.0101727
0.0101761
0.0101793
0.0101824
0.0101853
0.0101881
0.0101904
0.0101938
0.0102068
0.0105592
0.0105176
0.0105181
0.0105286
0.0105447
0.0105678
0.010597
0.0106286
0.0106555
0.0106684
0.0106624
0.0106362
0.0105766
0.0104856
0.0103751
0.0102591
0.0101489
0.0100521
0.0099728
0.00991188
0.00986842
0.00984041
0.00982547
0.00982124
0.00982534
0.00983518
0.00984931
0.00986732
0.00988808
0.00991058
0.00993406
0.0099579
0.00998163
0.0100048
0.0100272
0.0100485
0.0100686
0.0100873
0.0101046
0.0101203
0.0101346
0.0101472
0.0101584
0.0101682
0.0101766
0.0101836
0.0101895
0.0101942
0.0101978
0.0102006
0.0102025
0.0102036
0.0102041
0.010204
0.0102034
0.0102024
0.0102011
0.0101994
0.0101976
0.0101955
0.0101933
0.010191
0.0101886
0.0101861
0.0101837
0.0101812
0.0101787
0.0101763
0.0101739
0.0101716
0.0101693
0.010167
0.0101648
0.0101627
0.0101606
0.0101586
0.0101566
0.0101547
0.0101528
0.010151
0.0101492
0.0101475
0.0101458
0.0101442
0.0101426
0.0101411
0.0101396
0.0101381
0.0101367
0.0101353
0.010134
0.0101327
0.0101315
0.0101303
0.0101291
0.010128
0.010127
0.010126
0.0101251
0.0101242
0.0101235
0.0101228
0.0101222
0.0101217
0.0101214
0.0101211
0.010121
0.010121
0.0101212
0.0101216
0.0101221
0.0101229
0.0101238
0.010125
0.0101264
0.010128
0.0101299
0.010132
0.0101344
0.0101371
0.01014
0.0101431
0.0101465
0.01015
0.0101537
0.0101575
0.0101613
0.0101652
0.010169
0.0101727
0.0101763
0.0101797
0.010183
0.0101861
0.010189
0.0101919
0.0101946
0.010197
0.0102004
0.0102138
0.0104791
0.0104377
0.0104375
0.0104468
0.0104623