/*--------------------------------*- C++ -*----------------------------------*\
  =========                 |
  \\      /  F ield         | OpenFOAM: The Open Source CFD Toolbox
   \\    /   O peration     | Website:  https://openfoam.org
    \\  /    A nd           | Version:  12
     \\/     M anipulation  |
\*---------------------------------------------------------------------------*/
FoamFile
{
    format      ascii;
    class       surfaceScalarField;
    location    "60";
    object      phi;
}
// * * * * * * * * * * * * * * * * * * * * * * * * * * * * * * * * * * * * * //

dimensions      [0 3 -1 0 0 0 0];

internalField   nonuniform List<scalar> 
8788
(
-2.50317e-08
2.50316e-08
1.59647e-08
-4.09963e-08
1.66894e-07
-1.5093e-07
4.72646e-07
-3.05752e-07
9.75446e-07
-5.028e-07
1.71208e-06
-7.36633e-07
2.71152e-06
-9.99443e-07
3.99259e-06
-1.28106e-06
5.56173e-06
-1.56914e-06
7.41146e-06
-1.84973e-06
9.51973e-06
-2.10827e-06
1.18504e-05
-2.3307e-06
1.43552e-05
-2.50478e-06
1.69763e-05
-2.62109e-06
1.96501e-05
-2.6738e-06
2.23111e-05
-2.661e-06
2.48957e-05
-2.58458e-06
2.73454e-05
-2.44976e-06
2.96097e-05
-2.26433e-06
3.16476e-05
-2.03783e-06
3.34283e-05
-1.78069e-06
3.49318e-05
-1.5035e-06
3.61481e-05
-1.21635e-06
3.70765e-05
-9.2842e-07
3.77242e-05
-6.47679e-07
3.81049e-05
-3.80694e-07
3.82373e-05
-1.32398e-07
3.81429e-05
9.43673e-08
3.78447e-05
2.98227e-07
3.73663e-05
4.78464e-07
3.67313e-05
6.34988e-07
3.59631e-05
7.68148e-07
3.50844e-05
8.78709e-07
3.41166e-05
9.67799e-07
3.30798e-05
1.03682e-06
3.19924e-05
1.08738e-06
3.08712e-05
1.1212e-06
2.97311e-05
1.14007e-06
2.85854e-05
1.14578e-06
2.74453e-05
1.14011e-06
2.63205e-05
1.12472e-06
2.52193e-05
1.10122e-06
2.41483e-05
1.07106e-06
2.31127e-05
1.03557e-06
2.21167e-05
9.95972e-07
2.11634e-05
9.53316e-07
2.02549e-05
9.08535e-07
1.93924e-05
8.62432e-07
1.85767e-05
8.15691e-07
1.78079e-05
7.68888e-07
1.70854e-05
7.22498e-07
1.64084e-05
6.76908e-07
1.5776e-05
6.32427e-07
1.51867e-05
5.89297e-07
1.4639e-05
5.477e-07
1.41313e-05
5.0777e-07
1.36617e-05
4.69597e-07
1.32284e-05
4.33239e-07
1.28297e-05
3.98724e-07
1.24636e-05
3.66056e-07
1.21284e-05
3.35221e-07
1.18222e-05
3.06189e-07
1.15433e-05
2.7892e-07
1.12899e-05
2.53364e-07
1.10605e-05
2.29461e-07
1.08533e-05
2.0715e-07
1.0667e-05
1.86363e-07
1.04999e-05
1.67031e-07
1.03509e-05
1.4908e-07
1.02184e-05
1.32437e-07
1.01014e-05
1.17027e-07
9.99862e-06
1.02775e-07
9.90902e-06
8.96053e-08
9.83157e-06
7.74426e-08
9.76536e-06
6.62115e-08
9.70953e-06
5.58367e-08
9.66328e-06
4.62437e-08
9.62592e-06
3.73582e-08
9.59682e-06
2.91067e-08
9.5754e-06
2.14163e-08
9.56119e-06
1.42146e-08
9.55376e-06
7.43051e-09
9.55276e-06
9.95783e-10
9.55792e-06
-5.15804e-09
9.56902e-06
-1.11058e-08
9.58595e-06
-1.69268e-08
9.60865e-06
-2.26988e-08
9.63715e-06
-2.85016e-08
9.67157e-06
-3.44176e-08
9.7121e-06
-4.0534e-08
9.75905e-06
-4.69431e-08
9.81279e-06
-5.37442e-08
9.87383e-06
-6.10449e-08
9.9428e-06
-6.89629e-08
1.00204e-05
-7.76288e-08
1.01076e-05
-8.7188e-08
1.02054e-05
-9.78044e-08
1.03151e-05
-1.09664e-07
1.04381e-05
-1.22982e-07
1.05761e-05
-1.38003e-07
1.07311e-05
-1.55014e-07
1.09054e-05
-1.74354e-07
1.11019e-05
-1.96417e-07
1.13235e-05
-2.21678e-07
1.15742e-05
-2.50702e-07
1.18584e-05
-2.84169e-07
1.21813e-05
-3.22907e-07
1.25492e-05
-3.67927e-07
1.29697e-05
-4.20474e-07
1.34518e-05
-4.82092e-07
1.40065e-05
-5.54705e-07
1.46472e-05
-6.40734e-07
1.53905e-05
-7.43232e-07
1.62565e-05
-8.66062e-07
1.72707e-05
-1.01412e-06
1.84642e-05
-1.19358e-06
1.98764e-05
-1.41219e-06
2.1556e-05
-1.67956e-06
2.35642e-05
-2.00818e-06
2.59844e-05
-2.42022e-06
2.89578e-05
-2.97341e-06
3.27672e-05
-3.80938e-06
3.79675e-05
-5.20031e-06
4.60318e-05
-8.06427e-06
6.42668e-05
-1.8235e-05
0.000126883
-6.26161e-05
6.71249e-05
-0.000161945
1.22341e-05
-0.000213901
-4.50025e-05
-0.000218608
-0.000109474
-0.000169189
-4.43107e-05
-6.51636e-05
-2.51607e-05
-1.915e-05
-1.68858e-05
-8.2749e-06
-1.17904e-05
-5.09542e-06
-8.23159e-06
-3.55881e-06
-5.57796e-06
-2.65363e-06
-3.52592e-06
-2.05204e-06
-1.93964e-06
-1.58628e-06
-7.51243e-07
-1.1884e-06
-7.51243e-07
2.98393e-08
-4.80764e-09
1.31615e-07
-1.42772e-07
3.63555e-07
-3.8287e-07
7.79459e-07
-7.21656e-07
1.42899e-06
-1.15233e-06
2.35512e-06
-1.66276e-06
3.59132e-06
-2.23564e-06
5.15878e-06
-2.84853e-06
7.06398e-06
-3.47434e-06
9.29698e-06
-4.08274e-06
1.18309e-05
-4.6422e-06
1.46228e-05
-5.12254e-06
1.76156e-05
-5.49758e-06
2.07418e-05
-5.74735e-06
2.39277e-05
-5.85964e-06
2.70973e-05
-5.83064e-06
3.01773e-05
-5.66462e-06
3.31004e-05
-5.37286e-06
3.58082e-05
-4.97207e-06
3.8253e-05
-4.48261e-06
4.03989e-05
-3.92668e-06
4.22222e-05
-3.32677e-06
4.37102e-05
-2.70438e-06
4.48609e-05
-2.07906e-06
4.5681e-05
-1.46782e-06
4.6185e-05
-8.84662e-07
4.63929e-05
-3.40328e-07
4.6329e-05
1.58315e-07
4.60194e-05
6.07822e-07
4.54913e-05
1.00654e-06
4.47723e-05
1.35399e-06
4.38897e-05
1.65077e-06
4.287e-05
1.89839e-06
4.17386e-05
2.09916e-06
4.05195e-05
2.256e-06
3.92346e-05
2.37229e-06
3.79041e-05
2.45168e-06
3.65461e-05
2.49801e-06
3.51768e-05
2.51513e-06
3.38101e-05
2.50683e-06
3.2458e-05
2.47679e-06
3.11307e-05
2.42845e-06
2.98368e-05
2.36503e-06
2.85829e-05
2.28947e-06
2.73744e-05
2.20442e-06
2.62155e-05
2.11224e-06
2.5109e-05
2.015e-06
2.40569e-05
1.91452e-06
2.30603e-05
1.81231e-06
2.21195e-05
1.7097e-06
2.12343e-05
1.60775e-06
2.04038e-05
1.50735e-06
1.9627e-05
1.40923e-06
1.89024e-05
1.31393e-06
1.82282e-05
1.22189e-06
1.76026e-05
1.13343e-06
1.70234e-05
1.04876e-06
1.64886e-05
9.68045e-07
1.5996e-05
8.91348e-07
1.55433e-05
8.18698e-07
1.51285e-05
7.50075e-07
1.47492e-05
6.85423e-07
1.44035e-05
6.24661e-07
1.40892e-05
5.67683e-07
1.38043e-05
5.14367e-07
1.35468e-05
4.64578e-07
1.3315e-05
4.18172e-07
1.31071e-05
3.74995e-07
1.29213e-05
3.34889e-07
1.2756e-05
2.97692e-07
1.26098e-05
2.6324e-07
1.24812e-05
2.31367e-07
1.23689e-05
2.01905e-07
1.22716e-05
1.74688e-07
1.21883e-05
1.49548e-07
1.21178e-05
1.26319e-07
1.20592e-05
1.04835e-07
1.20117e-05
8.49311e-08
1.19743e-05
6.64443e-08
1.19465e-05
4.92122e-08
1.19277e-05
3.3074e-08
1.19172e-05
1.78711e-08
1.19148e-05
3.44783e-09
1.192e-05
-1.03475e-08
1.19325e-05
-2.36787e-08
1.19523e-05
-3.67204e-08
1.19793e-05
-4.96464e-08
1.20134e-05
-6.26338e-08
1.20549e-05
-7.58667e-08
1.21039e-05
-8.95386e-08
1.21608e-05
-1.03855e-07
1.22261e-05
-1.19036e-07
1.23004e-05
-1.35321e-07
1.23844e-05
-1.52971e-07
1.2479e-05
-1.72275e-07
1.25854e-05
-1.93555e-07
1.27047e-05
-2.17174e-07
1.28386e-05
-2.43543e-07
1.29888e-05
-2.73134e-07
1.31573e-05
-3.06492e-07
1.33465e-05
-3.44248e-07
1.35593e-05
-3.87144e-07
1.37989e-05
-4.36054e-07
1.40693e-05
-4.92016e-07
1.43748e-05
-5.56273e-07
1.4721e-05
-6.3032e-07
1.5114e-05
-7.15972e-07
1.55616e-05
-8.1545e-07
1.60726e-05
-9.31486e-07
1.6658e-05
-1.06748e-06
1.73309e-05
-1.22768e-06
1.81077e-05
-1.41747e-06
1.90082e-05
-1.64374e-06
2.00575e-05
-1.91539e-06
2.12876e-05
-2.24418e-06
2.27399e-05
-2.64592e-06
2.44705e-05
-3.14273e-06
2.65581e-05
-3.76718e-06
2.91212e-05
-4.57129e-06
3.2349e-05
-5.64807e-06
3.65576e-05
-7.18202e-06
4.22999e-05
-9.55168e-06
5.06429e-05
-1.35432e-05
6.36323e-05
-2.10537e-05
8.27433e-05
-3.7346e-05
9.3618e-05
-7.34909e-05
6.1259e-05
-0.000129586
1.27006e-05
-0.000165343
-3.73139e-05
-0.000168594
-7.15203e-05
-0.000134982
-5.98387e-05
-7.68453e-05
-3.99602e-05
-3.90284e-05
-2.65015e-05
-2.17336e-05
-1.79538e-05
-1.36431e-05
-1.22002e-05
-9.31238e-06
-8.12037e-06
-6.7335e-06
-5.12892e-06
-5.04349e-06
-2.89831e-06
-3.81688e-06
-1.24735e-06
-2.83936e-06
-1.99859e-06
8.21744e-08
-8.69821e-08
2.45387e-07
-3.05985e-07
5.54098e-07
-6.91581e-07
1.06972e-06
-1.23728e-06
1.84852e-06
-1.93113e-06
2.939e-06
-2.75324e-06
4.37868e-06
-3.67532e-06
6.19092e-06
-4.66076e-06
8.38216e-06
-5.66558e-06
1.09401e-05
-6.64071e-06
1.38334e-05
-7.53545e-06
1.70124e-05
-8.30158e-06
2.04124e-05
-8.89755e-06
2.39571e-05
-9.29206e-06
2.75639e-05
-9.46639e-06
3.11485e-05
-9.41525e-06
3.463e-05
-9.14614e-06
3.79347e-05
-8.67754e-06
4.09989e-05
-8.03628e-06
4.3771e-05
-7.2547e-06
4.62121e-05
-6.36784e-06
4.82964e-05
-5.41102e-06
5.00099e-05
-4.41789e-06
5.13498e-05
-3.41899e-06
5.23228e-05
-2.44083e-06
5.29435e-05
-1.50534e-06
5.32327e-05
-6.29483e-07
5.32157e-05
1.75217e-07
5.2921e-05
9.02524e-07
5.2378e-05
1.54961e-06
5.16165e-05
2.11546e-06
5.06666e-05
2.60072e-06
4.95573e-05
3.0076e-06
4.8317e-05
3.33955e-06
4.69719e-05
3.60103e-06
4.5547e-05
3.79725e-06
4.40648e-05
3.93388e-06
4.25459e-05
4.01691e-06
4.10086e-05
4.0524e-06
3.94691e-05
4.04635e-06
3.79413e-05
4.00457e-06
3.64372e-05
3.93257e-06
3.49667e-05
3.83549e-06
3.35381e-05
3.71806e-06
3.2158e-05
3.58458e-06
3.08313e-05
3.43887e-06
2.9562e-05
3.28433e-06
2.83526e-05
3.12392e-06
2.72048e-05
2.96016e-06
2.61193e-05
2.79522e-06
2.50961e-05
2.63091e-06
2.41347e-05
2.46872e-06
2.32341e-05
2.30985e-06
2.23928e-05
2.15527e-06
2.16089e-05
2.00573e-06
2.08806e-05
1.86178e-06
2.02055e-05
1.72382e-06
1.95814e-05
1.59213e-06
1.90059e-05
1.46687e-06
1.84765e-05
1.34809e-06
1.79908e-05
1.23579e-06
1.75463e-05
1.1299e-06
1.71407e-05
1.03031e-06
1.67715e-05
9.3686e-07
1.64365e-05
8.49359e-07
1.61335e-05
7.676e-07
1.58603e-05
6.91354e-07
1.56149e-05
6.20379e-07
1.53954e-05
5.54421e-07
1.51998e-05
4.93222e-07
1.50266e-05
4.36515e-07
1.48739e-05
3.84033e-07
1.47403e-05
3.35504e-07
1.46243e-05
2.90656e-07
1.45247e-05
2.49219e-07
1.44401e-05
2.1092e-07
1.43694e-05
1.7549e-07
1.43117e-05
1.4266e-07
1.4266e-05
1.12162e-07
1.42314e-05
8.37323e-08
1.42074e-05
5.71066e-08
1.41932e-05
3.20248e-08
1.41885e-05
8.23047e-09
1.41926e-05
-1.45265e-08
1.42055e-05
-3.6511e-08
1.42268e-05
-5.8005e-08
1.42564e-05
-7.92916e-08
1.42944e-05
-1.0066e-07
1.4341e-05
-1.22412e-07
1.43963e-05
-1.44862e-07
1.44608e-05
-1.68345e-07
1.4535e-05
-1.9322e-07
1.46195e-05
-2.19873e-07
1.47153e-05
-2.4873e-07
1.48233e-05
-2.80258e-07
1.49447e-05
-3.14977e-07
1.5081e-05
-3.53473e-07
1.52339e-05
-3.96408e-07
1.54053e-05
-4.44542e-07
1.55975e-05
-4.98747e-07
1.58133e-05
-5.60036e-07
1.60558e-05
-6.29595e-07
1.63285e-05
-7.08818e-07
1.66359e-05
-7.99358e-07
1.69828e-05
-9.0319e-07
1.73751e-05
-1.02269e-06
1.78199e-05
-1.16072e-06
1.83253e-05
-1.32081e-06
1.8901e-05
-1.50727e-06
1.9559e-05
-1.72548e-06
2.03135e-05
-1.98217e-06
2.1182e-05
-2.28592e-06
2.2186e-05
-2.64775e-06
2.33528e-05
-3.08216e-06
2.47171e-05
-3.60853e-06
2.63249e-05
-4.25366e-06
2.8238e-05
-5.05591e-06
3.05436e-05
-6.07279e-06
3.33677e-05
-7.39534e-06
3.68957e-05
-9.17608e-06
4.13963e-05
-1.16826e-05
4.72383e-05
-1.53936e-05
5.48636e-05
-2.11686e-05
6.44045e-05
-3.05946e-05
7.36142e-05
-4.65557e-05
7.28215e-05
-7.26982e-05
4.98691e-05
-0.000106633
1.37977e-05
-0.000129271
-2.32396e-05
-0.000131557
-4.74738e-05
-0.000110748
-4.82885e-05
-7.60306e-05
-3.85993e-05
-4.87176e-05
-2.85394e-05
-3.17935e-05
-2.05152e-05
-2.16673e-05
-1.44285e-05
-1.53991e-05
-9.83103e-06
-1.1331e-05
-6.33696e-06
-8.53756e-06
-3.66165e-06
-6.49219e-06
-1.60232e-06
-4.89869e-06
-3.60091e-06
1.23287e-07
-2.10269e-07
3.35031e-07
-5.17729e-07
7.05015e-07
-1.06157e-06
1.30101e-06
-1.83327e-06
2.18549e-06
-2.81562e-06
3.41244e-06
-3.98019e-06
5.02359e-06
-5.28647e-06
7.04469e-06
-6.68186e-06
9.48231e-06
-8.10321e-06
1.23219e-05
-9.4803e-06
1.55273e-05
-1.07408e-05
1.90422e-05
-1.18164e-05
2.27934e-05
-1.26488e-05
2.66958e-05
-1.31945e-05
3.06579e-05
-1.34285e-05
3.45878e-05
-1.33451e-05
3.83978e-05
-1.29562e-05
4.20094e-05
-1.22891e-05
4.53556e-05
-1.13825e-05
4.83829e-05
-1.0282e-05
5.10516e-05
-9.03655e-06
5.33357e-05
-7.6951e-06
5.52218e-05
-6.30391e-06
5.67075e-05
-4.90476e-06
5.78004e-05
-3.53376e-06
5.85158e-05
-2.22071e-06
5.88751e-05
-9.88797e-07
5.89047e-05
1.45652e-07
5.86339e-05
1.17336e-06
5.80934e-05
2.09009e-06
5.73147e-05
2.89414e-06
5.63293e-05
3.58616e-06
5.51679e-05
4.16896e-06
5.38603e-05
4.64712e-06
5.24348e-05
5.0266e-06
5.09176e-05
5.31445e-06
4.9333e-05
5.51839e-06
4.77034e-05
5.64659e-06
4.60484e-05
5.70736e-06
4.43858e-05
5.70897e-06
4.27309e-05
5.65945e-06
4.1097e-05
5.56645e-06
3.94954e-05
5.43713e-06
3.79353e-05
5.27814e-06
3.64244e-05
5.0955e-06
3.49686e-05
4.89463e-06
3.35726e-05
4.68036e-06
3.22396e-05
4.4569e-06
3.09719e-05
4.2279e-06
2.97706e-05
3.99649e-06
2.86362e-05
3.76528e-06
2.75685e-05
3.53646e-06
2.65665e-05
3.31183e-06
2.5629e-05
3.09281e-06
2.47542e-05
2.88053e-06
2.39401e-05
2.67585e-06
2.31845e-05
2.47939e-06
2.24851e-05
2.29159e-06
2.18392e-05
2.11273e-06
2.12444e-05
1.94293e-06
2.06979e-05
1.78224e-06
2.01973e-05
1.63057e-06
1.97398e-05
1.4878e-06
1.93229e-05
1.35372e-06
1.89442e-05
1.22809e-06
1.86012e-05
1.11062e-06
1.82915e-05
1.001e-06
1.8013e-05
8.98903e-07
1.77634e-05
8.03971e-07
1.75408e-05
7.15842e-07
1.73432e-05
6.34145e-07
1.71687e-05
5.585e-07
1.70157e-05
4.88523e-07
1.68825e-05
4.23832e-07
1.67677e-05
3.64038e-07
1.66699e-05
3.08757e-07
1.65878e-05
2.57603e-07
1.65202e-05
2.10195e-07
1.64662e-05
1.66149e-07
1.64249e-05
1.25087e-07
1.63954e-05
8.66331e-08
1.6377e-05
5.04137e-08
1.63691e-05
1.606e-08
1.63714e-05
-1.67886e-08
1.63834e-05
-4.85079e-08
1.64049e-05
-7.94953e-08
1.64358e-05
-1.10154e-07
1.6476e-05
-1.40896e-07
1.65257e-05
-1.7215e-07
1.65852e-05
-2.04365e-07
1.66549e-05
-2.38016e-07
1.67353e-05
-2.73612e-07
1.68271e-05
-3.117e-07
1.69313e-05
-3.5288e-07
1.70488e-05
-3.9781e-07
1.71811e-05
-4.47222e-07
1.73295e-05
-5.01935e-07
1.7496e-05
-5.62879e-07
1.76826e-05
-6.3111e-07
1.78917e-05
-7.07842e-07
1.81261e-05
-7.94483e-07
1.83892e-05
-8.9267e-07
1.86847e-05
-1.00433e-06
1.90171e-05
-1.13173e-06
1.93914e-05
-1.27758e-06
1.98139e-05
-1.44512e-06
2.02914e-05
-1.63827e-06
2.08324e-05
-1.86181e-06
2.14467e-05
-2.12157e-06
2.21461e-05
-2.42483e-06
2.29446e-05
-2.78068e-06
2.38594e-05
-3.20067e-06
2.49113e-05
-3.69966e-06
2.61262e-05
-4.29714e-06
2.75369e-05
-5.01923e-06
2.91851e-05
-5.90181e-06
3.11248e-05
-6.99562e-06
3.34269e-05
-8.37488e-06
3.61832e-05
-1.01516e-05
3.95073e-05
-1.25001e-05
4.35208e-05
-1.56962e-05
4.83025e-05
-2.01753e-05
5.37429e-05
-2.6609e-05
5.91346e-05
-3.59862e-05
6.21687e-05
-4.95899e-05
5.77264e-05
-6.82559e-05
4.04684e-05
-8.9375e-05
1.47585e-05
-0.000103562
-1.16298e-05
-0.000105168
-2.98608e-05
-9.2517e-05
-3.45825e-05
-7.13089e-05
-3.13425e-05
-5.19576e-05
-2.55493e-05
-3.75867e-05
-1.9687e-05
-2.75295e-05
-1.45495e-05
-2.05366e-05
-1.02825e-05
-1.5598e-05
-6.81701e-06
-1.20031e-05
-4.02874e-06
-9.28046e-06
-1.79309e-06
-7.13434e-06
-5.394e-06
1.46564e-07
-3.56833e-07
3.86482e-07
-7.57646e-07
7.94979e-07
-1.47006e-06
1.4462e-06
-2.4845e-06
2.40909e-06
-3.77851e-06
3.74361e-06
-5.3147e-06
5.49627e-06
-7.03913e-06
7.69574e-06
-8.88133e-06
1.03491e-05
-1.07565e-05
1.34393e-05
-1.25706e-05
1.6925e-05
-1.42265e-05
2.07421e-05
-1.56335e-05
2.48078e-05
-1.67145e-05
2.90269e-05
-1.74136e-05
3.32982e-05
-1.76998e-05
3.75214e-05
-1.75682e-05
4.16028e-05
-1.70376e-05
4.54597e-05
-1.61461e-05
4.90234e-05
-1.49462e-05
5.22402e-05
-1.34988e-05
5.50716e-05
-1.1868e-05
5.74936e-05
-1.01171e-05
5.94952e-05
-8.30551e-06
6.10766e-05
-6.48607e-06
6.22471e-05
-4.70427e-06
6.30238e-05
-2.99741e-06
6.34294e-05
-1.39447e-06
6.34913e-05
8.3822e-08
6.32393e-05
1.42535e-06
6.2705e-05
2.62436e-06
6.19207e-05
3.67845e-06
6.09186e-05
4.5883e-06
5.97302e-05
5.35733e-06
5.83861e-05
5.99125e-06
5.69151e-05
6.49756e-06
5.53444e-05
6.8851e-06
5.36992e-05
7.16366e-06
5.20022e-05
7.34355e-06
5.02743e-05
7.43532e-06
4.85337e-05
7.4495e-06
4.67969e-05
7.39632e-06
4.50777e-05
7.28558e-06
4.33884e-05
7.12649e-06
4.17389e-05
6.9276e-06
4.01377e-05
6.69673e-06
3.85914e-05
6.44094e-06
3.71052e-05
6.16651e-06
3.56831e-05
5.87899e-06
3.43278e-05
5.5832e-06
3.3041e-05
5.28329e-06
3.18235e-05
4.98277e-06
3.06754e-05
4.68458e-06
2.95961e-05
4.39115e-06
2.85845e-05
4.10445e-06
2.7639e-05
3.82603e-06
2.67577e-05
3.5571e-06
2.59385e-05
3.29856e-06
2.51791e-05
3.05105e-06
2.44768e-05
2.815e-06
2.38291e-05
2.59064e-06
2.32333e-05
2.37806e-06
2.26867e-05
2.17721e-06
2.21865e-05
1.98796e-06
2.17301e-05
1.81007e-06
2.1315e-05
1.64326e-06
2.09384e-05
1.48716e-06
2.0598e-05
1.3414e-06
2.02914e-05
1.20554e-06
2.00162e-05
1.07915e-06
1.97703e-05
9.6174e-07
1.95516e-05
8.52844e-07
1.93582e-05
7.51964e-07
1.91881e-05
6.58603e-07
1.90397e-05
5.72255e-07
1.89113e-05
4.92415e-07
1.88015e-05
4.18576e-07
1.87088e-05
3.50233e-07
1.86321e-05
2.86879e-07
1.85703e-05
2.28014e-07
1.85222e-05
1.73136e-07
1.84871e-05
1.21748e-07
1.84642e-05
7.33563e-08
1.84528e-05
2.74703e-08
1.84524e-05
-1.63905e-08
1.84626e-05
-5.87192e-08
1.84831e-05
-1.00034e-07
1.85138e-05
-1.40863e-07
1.85547e-05
-1.8175e-07
1.86058e-05
-2.23259e-07
1.86674e-05
-2.65978e-07
1.87399e-05
-3.1053e-07
1.88239e-05
-3.5758e-07
1.892e-05
-4.07842e-07
1.90292e-05
-4.62095e-07
1.91526e-05
-5.21193e-07
1.92915e-05
-5.86083e-07
1.94474e-05
-6.57821e-07
1.96221e-05
-7.37601e-07
1.98178e-05
-8.26777e-07
2.00368e-05
-9.269e-07
2.02821e-05
-1.03976e-06
2.05569e-05
-1.16743e-06
2.08649e-05
-1.31234e-06
2.12105e-05
-1.47735e-06
2.15988e-05
-1.66585e-06
2.20355e-05
-1.88187e-06
2.25275e-05
-2.13029e-06
2.30827e-05
-2.41698e-06
2.37103e-05
-2.74913e-06
2.4421e-05
-3.13563e-06
2.52279e-05
-3.5875e-06
2.61459e-05
-4.1187e-06
2.71933e-05
-4.74701e-06
2.83917e-05
-5.49556e-06
2.97673e-05
-6.39489e-06
3.13517e-05
-7.48614e-06
3.3182e-05
-8.82592e-06
3.53007e-05
-1.04936e-05
3.77516e-05
-1.26026e-05
4.05676e-05
-1.53161e-05
4.37403e-05
-1.88688e-05
4.71544e-05
-2.35894e-05
5.04579e-05
-2.99125e-05
5.282e-05
-3.83484e-05
5.25569e-05
-4.93267e-05
4.69607e-05
-6.26598e-05
3.3822e-05
-7.62363e-05
1.55166e-05
-8.52561e-05
-3.26765e-06
-8.63841e-05
-1.7104e-05
-7.86806e-05
-2.30325e-05
-6.53804e-05
-2.32591e-05
-5.1731e-05
-2.06317e-05
-4.02141e-05
-1.69627e-05
-3.11986e-05
-1.31729e-05
-2.43264e-05
-9.6698e-06
-1.91011e-05
-6.59917e-06
-1.50737e-05
-3.98455e-06
-1.18951e-05
-1.79872e-06
-9.32018e-06
-7.19272e-06
1.46749e-07
-5.03582e-07
3.8872e-07
-9.99617e-07
8.07473e-07
-1.88882e-06
1.48436e-06
-3.16138e-06
2.4957e-06
-4.78985e-06
3.90839e-06
-6.72739e-06
5.77472e-06
-8.90547e-06
8.12709e-06
-1.12337e-05
1.09734e-05
-1.36028e-05
1.4294e-05
-1.58912e-05
1.80412e-05
-1.79738e-05
2.21415e-05
-1.97338e-05
2.65007e-05
-2.10736e-05
3.10111e-05
-2.19241e-05
3.55604e-05
-2.22491e-05
4.00389e-05
-2.20467e-05
4.43464e-05
-2.13451e-05
4.8397e-05
-2.01966e-05
5.2121e-05
-1.86703e-05
5.54666e-05
-1.68444e-05
5.83986e-05
-1.48e-05
6.08971e-05
-1.26156e-05
6.29553e-05
-1.03638e-05
6.45777e-05
-8.10847e-06
6.57775e-05
-5.904e-06
6.65745e-05
-3.79441e-06
6.69937e-05
-1.81367e-06
6.70635e-05
1.3951e-08
6.68148e-05
1.67411e-06
6.62795e-05
3.15966e-06
6.54903e-05
4.46765e-06
6.44797e-05
5.59894e-06
6.32793e-05
6.55772e-06
6.19196e-05
7.35093e-06
6.04295e-05
7.98764e-06
5.88361e-05
8.47853e-06
5.71643e-05
8.8354e-06
5.54372e-05
9.0707e-06
5.36754e-05
9.19715e-06
5.18974e-05
9.22745e-06
5.01197e-05
9.17398e-06
4.83567e-05
9.04861e-06
4.66207e-05
8.86253e-06
4.49221e-05
8.62618e-06
4.32697e-05
8.34909e-06
4.16707e-05
8.03995e-06
4.01307e-05
7.70651e-06
3.86541e-05
7.35564e-06
3.72439e-05
6.99334e-06
3.59024e-05
6.62481e-06
3.46307e-05
6.25448e-06
3.34292e-05
5.88608e-06
3.22976e-05
5.52273e-06
3.12351e-05
5.16694e-06
3.02404e-05
4.82076e-06
2.93117e-05
4.48578e-06
2.8447e-05
4.16322e-06
2.76441e-05
3.85394e-06
2.69006e-05
3.55857e-06
2.62138e-05
3.27746e-06
2.5581e-05
3.01078e-06
2.49997e-05
2.75855e-06
2.4467e-05
2.52063e-06
2.39803e-05
2.29679e-06
2.35369e-05
2.08669e-06
2.31341e-05
1.88993e-06
2.27695e-05
1.70605e-06
2.24405e-05
1.53455e-06
2.21447e-05
1.37488e-06
2.188e-05
1.22648e-06
2.16441e-05
1.08875e-06
2.1435e-05
9.61091e-07
2.12507e-05
8.42887e-07
2.10894e-05
7.33513e-07
2.09495e-05
6.32342e-07
2.08293e-05
5.38742e-07
2.07275e-05
4.52084e-07
2.06426e-05
3.71737e-07
2.05735e-05
2.97074e-07
2.05192e-05
2.27469e-07
2.04787e-05
1.62299e-07
2.04511e-05
1.00944e-07
2.04358e-05
4.27878e-08
2.04321e-05
-1.27783e-08
2.04398e-05
-6.63679e-08
2.04584e-05
-1.18619e-07
2.04877e-05
-1.70193e-07
2.05277e-05
-2.21767e-07
2.05785e-05
-2.74041e-07
2.06403e-05
-3.27747e-07
2.07134e-05
-3.83659e-07
2.07984e-05
-4.42596e-07
2.0896e-05
-5.05443e-07
2.10071e-05
-5.73154e-07
2.11327e-05
-6.46779e-07
2.12741e-05
-7.27472e-07
2.14328e-05
-8.16522e-07
2.16105e-05
-9.15374e-07
2.18094e-05
-1.02567e-06
2.20318e-05
-1.14926e-06
2.22803e-05
-1.28831e-06
2.25582e-05
-1.44528e-06
2.28689e-05
-1.62305e-06
2.32165e-05
-1.825e-06
2.36058e-05
-2.05512e-06
2.4042e-05
-2.31811e-06
2.45314e-05
-2.61961e-06
2.50808e-05
-2.96642e-06
2.56984e-05
-3.36675e-06
2.63935e-05
-3.83066e-06
2.71765e-05
-4.37058e-06
2.80598e-05
-5.00198e-06
2.90572e-05
-5.74439e-06
3.01844e-05
-6.62274e-06
3.14587e-05
-7.66925e-06
3.28988e-05
-8.92619e-06
3.45224e-05
-1.04496e-05
3.63432e-05
-1.23144e-05
3.83618e-05
-1.46213e-05
4.05503e-05
-1.75046e-05
4.2821e-05
-2.11395e-05
4.49743e-05
-2.57427e-05
4.66157e-05
-3.15539e-05
4.7044e-05
-3.87766e-05
4.51489e-05
-4.74316e-05
3.95267e-05
-5.70377e-05
2.93762e-05
-6.60857e-05
1.6101e-05
-7.19809e-05
2.51214e-06
-7.27953e-05
-8.11662e-06
-6.80519e-05
-1.40504e-05
-5.94466e-05
-1.59962e-05
-4.97852e-05
-1.5408e-05
-4.08022e-05
-1.34766e-05
-3.313e-05
-1.09768e-05
-2.68262e-05
-8.35996e-06
-2.17179e-05
-5.86624e-06
-1.75674e-05
-3.61222e-06
-1.41491e-05
-1.64869e-06
-1.12837e-05
-8.84141e-06
1.20458e-07
-6.2404e-07
3.34464e-07
-1.21362e-06
7.31554e-07
-2.28591e-06
1.4017e-06
-3.83153e-06
2.42993e-06
-5.81808e-06
3.89148e-06
-8.18894e-06
5.84571e-06
-1.08597e-05
8.32975e-06
-1.37177e-05
1.13527e-05
-1.66258e-05
1.4892e-05
-1.94305e-05
1.88923e-05
-2.1974e-05
2.32682e-05
-2.41097e-05
2.79113e-05
-2.57167e-05
3.26991e-05
-2.67119e-05
3.75056e-05
-2.70556e-05
4.22103e-05
-2.67515e-05
4.67063e-05
-2.58411e-05
5.09047e-05
-2.4395e-05
5.47367e-05
-2.25022e-05
5.81537e-05
-2.02614e-05
6.11259e-05
-1.77722e-05
6.36397e-05
-1.51294e-05
6.5695e-05
-1.2419e-05
6.73021e-05
-9.71561e-06
6.84796e-05
-7.08148e-06
6.92516e-05
-4.56645e-06
6.96463e-05
-2.20832e-06
6.96938e-05
-3.36069e-08
6.94259e-05
1.94204e-06
6.88752e-05
3.71036e-06
6.80745e-05
5.26832e-06
6.70562e-05
6.61728e-06
6.58515e-05
7.76246e-06
6.44902e-05
8.71223e-06
6.30004e-05
9.47737e-06
6.14085e-05
1.00705e-05
5.97386e-05
1.05053e-05
5.80129e-05
1.07964e-05
5.62514e-05
1.09587e-05
5.44721e-05
1.10067e-05
5.2691e-05
1.09551e-05
5.09222e-05
1.08175e-05
4.91777e-05
1.0607e-05
4.74681e-05
1.03358e-05
4.5802e-05
1.00151e-05
4.41868e-05
9.65516e-06
4.26283e-05
9.26503e-06
4.11311e-05
8.85288e-06
3.96985e-05
8.42588e-06
3.83331e-05
7.99024e-06
3.70363e-05
7.55131e-06
3.58087e-05
7.11361e-06
3.46505e-05
6.68093e-06
3.35611e-05
6.2564e-06
3.25393e-05
5.84254e-06
3.15837e-05
5.44135e-06
3.06926e-05
5.0544e-06
2.98637e-05
4.68282e-06
2.90948e-05
4.32743e-06
2.83835e-05
3.98876e-06
2.77272e-05
3.66708e-06
2.71233e-05
3.36247e-06
2.65691e-05
3.07483e-06
2.6062e-05
2.80394e-06
2.55992e-05
2.54944e-06
2.51782e-05
2.3109e-06
2.47965e-05
2.08779e-06
2.44515e-05
1.87953e-06
2.41409e-05
1.68551e-06
2.38623e-05
1.50505e-06
2.36136e-05
1.33747e-06
2.33926e-05
1.18205e-06
2.31975e-05
1.03806e-06
2.30262e-05
9.04768e-07
2.28771e-05
7.81415e-07
2.27486e-05
6.67252e-07
2.26392e-05
5.61523e-07
2.25475e-05
4.63474e-07
2.24722e-05
3.72352e-07
2.24122e-05
2.87403e-07
2.23667e-05
2.07879e-07
2.23346e-05
1.33033e-07
2.23152e-05
6.212e-08
2.23081e-05
-5.60279e-09
2.23126e-05
-7.08682e-08
2.23284e-05
-1.34432e-07
2.23553e-05
-1.9709e-07
2.23932e-05
-2.59651e-07
2.24421e-05
-3.22955e-07
2.25022e-05
-3.87874e-07
2.25739e-05
-4.55328e-07
2.26576e-05
-5.26292e-07
2.27539e-05
-6.01811e-07
2.28638e-05
-6.83014e-07
2.29881e-05
-7.71131e-07
2.31282e-05
-8.67517e-07
2.32853e-05
-9.73674e-07
2.34612e-05
-1.09128e-06
2.36578e-05
-1.22223e-06
2.38772e-05
-1.36867e-06
2.4122e-05
-1.53305e-06
2.43949e-05
-1.7182e-06
2.46992e-05
-1.92737e-06
2.50386e-05
-2.16437e-06
2.54171e-05
-2.43363e-06
2.58394e-05
-2.74041e-06
2.63107e-05
-3.09091e-06
2.68368e-05
-3.49254e-06
2.74243e-05
-3.9542e-06
2.80802e-05
-4.48665e-06
2.88127e-05
-5.10303e-06
2.96302e-05
-5.81945e-06
3.05417e-05
-6.65589e-06
3.15562e-05
-7.63731e-06
3.26821e-05
-8.79517e-06
3.39253e-05
-1.01693e-05
3.52863e-05
-1.18105e-05
3.67552e-05
-1.37833e-05
3.83027e-05
-1.61688e-05
3.98652e-05
-1.90671e-05
4.13209e-05
-2.25953e-05
4.24562e-05
-2.6878e-05
4.29232e-05
-3.20209e-05
4.22011e-05
-3.80546e-05
3.96012e-05
-4.48317e-05
3.4422e-05
-5.18584e-05
2.64397e-05
-5.81035e-05
1.65532e-05
-6.20944e-05
6.47833e-06
-6.27204e-05
-1.83978e-06
-5.97338e-05
-7.27902e-06
-5.40074e-05
-9.96275e-06
-4.71015e-05
-1.05956e-05
-4.01694e-05
-9.91003e-06
-3.38155e-05
-8.47969e-06
-2.82566e-05
-6.70205e-06
-2.34956e-05
-4.83311e-06
-1.94364e-05
-3.03143e-06
-1.59508e-05
-1.39624e-06
-1.29189e-05
-1.02377e-05
6.57866e-08
-6.89827e-07
2.19357e-07
-1.36719e-06
5.60721e-07
-2.62727e-06
1.1901e-06
-4.46091e-06
2.20292e-06
-6.8309e-06
3.68435e-06
-9.67038e-06
5.7024e-06
-1.28777e-05
8.30014e-06
-1.63155e-05
1.14885e-05
-1.98142e-05
1.52412e-05
-2.31832e-05
1.94935e-05
-2.62263e-05
2.41456e-05
-2.87617e-05
2.90713e-05
-3.06424e-05
3.41298e-05
-3.17704e-05
3.91787e-05
-3.21045e-05
4.40855e-05
-3.16583e-05
4.8736e-05
-3.04916e-05
5.3039e-05
-2.8698e-05
5.69281e-05
-2.63913e-05
6.03602e-05
-2.36935e-05
6.33131e-05
-2.07251e-05
6.57818e-05
-1.7598e-05
6.77745e-05
-1.44118e-05
6.93098e-05
-1.12509e-05
7.04129e-05
-8.18458e-06
7.11135e-05
-5.26702e-06
7.14435e-05
-2.53836e-06
7.14359e-05
-2.59563e-08
7.11234e-05
2.2545e-06
7.05394e-05
4.29434e-06
6.97168e-05
6.09092e-06
6.86875e-05
7.64664e-06
6.74818e-05
8.96819e-06
6.61283e-05
1.00657e-05
6.46539e-05
1.09518e-05
6.30833e-05
1.16411e-05
6.14393e-05
1.21494e-05
5.97424e-05
1.24933e-05
5.80114e-05
1.26896e-05
5.62632e-05
1.2755e-05
5.45126e-05
1.27056e-05
5.27729e-05
1.25572e-05
5.10555e-05
1.23244e-05
4.93704e-05
1.20209e-05
4.77261e-05
1.16595e-05
4.61294e-05
1.12518e-05
4.45863e-05
1.08081e-05
4.31013e-05
1.03379e-05
4.1678e-05
9.84922e-06
4.03188e-05
9.34937e-06
3.90256e-05
8.84451e-06
3.77993e-05
8.33995e-06
3.66401e-05
7.84013e-06
3.55477e-05
7.34876e-06
3.45214e-05
6.86887e-06
3.35599e-05
6.40288e-06
3.26616e-05
5.95269e-06
3.18247e-05
5.51973e-06
3.10471e-05
5.10505e-06
3.03265e-05
4.70934e-06
2.96605e-05
4.33301e-06
2.90468e-05
3.97624e-06
2.84826e-05
3.63898e-06
2.79655e-05
3.32101e-06
2.7493e-05
3.02201e-06
2.70624e-05
2.74148e-06
2.66713e-05
2.47889e-06
2.63172e-05
2.23358e-06
2.59979e-05
2.00486e-06
2.5711e-05
1.79198e-06
2.54543e-05
1.59416e-06
2.52257e-05
1.41059e-06
2.50234e-05
1.24042e-06
2.48453e-05
1.0828e-06
2.46899e-05
9.36876e-07
2.45554e-05
8.01768e-07
2.44403e-05
6.76603e-07
2.43433e-05
5.60504e-07
2.4263e-05
4.52593e-07
2.41984e-05
3.51996e-07
2.41485e-05
2.57837e-07
2.41122e-05
1.69245e-07
2.4089e-05
8.53497e-08
2.40781e-05
5.2751e-09
2.40791e-05
-7.18319e-08
2.40915e-05
-1.46845e-07
2.41151e-05
-2.20686e-07
2.41498e-05
-2.94298e-07
2.41955e-05
-3.68649e-07
2.42523e-05
-4.44751e-07
2.43207e-05
-5.23663e-07
2.44009e-05
-6.06507e-07
2.44935e-05
-6.94481e-07
2.45994e-05
-7.88873e-07
2.47194e-05
-8.91085e-07
2.48545e-05
-1.00265e-06
2.50061e-05
-1.12526e-06
2.51756e-05
-1.26081e-06
2.53648e-05
-1.4114e-06
2.55755e-05
-1.57942e-06
2.58101e-05
-1.76759e-06
2.60708e-05
-1.97899e-06
2.63607e-05
-2.21718e-06
2.66826e-05
-2.48629e-06
2.704e-05
-2.79108e-06
2.74368e-05
-3.13716e-06
2.78769e-05
-3.53107e-06
2.8365e-05
-3.98056e-06
2.89056e-05
-4.49484e-06
2.95039e-05
-5.0849e-06
3.01647e-05
-5.76391e-06
3.08931e-05
-6.54782e-06
3.16932e-05
-7.45594e-06
3.25677e-05
-8.51184e-06
3.35168e-05
-9.74429e-06
3.4536e-05
-1.11885e-05
3.56127e-05
-1.28872e-05
3.67214e-05
-1.4892e-05
3.78159e-05
-1.72632e-05
3.88173e-05
-2.00686e-05
3.95997e-05
-2.33776e-05
3.99706e-05
-2.72489e-05
3.96553e-05
-3.17055e-05
3.82932e-05
-3.66926e-05
3.54755e-05
-4.2014e-05
3.08687e-05
-4.72516e-05
2.44746e-05
-5.17093e-05
1.68985e-05
-5.45183e-05
9.20708e-06
-5.5029e-05
2.57206e-06
-5.30987e-05
-2.23778e-06
-4.91975e-05
-5.14612e-06
-4.41932e-05
-6.46523e-06
-3.88503e-05
-6.62361e-06
-3.36572e-05
-6.01675e-06
-2.88634e-05
-4.95947e-06
-2.45528e-05
-3.68364e-06
-2.07122e-05
-2.35483e-06
-1.72796e-05
-1.094e-06
-1.41797e-05
-1.13317e-05
-1.91698e-08
-6.70657e-07
4.07006e-08
-1.42706e-06
2.91218e-07
-2.87779e-06
8.45068e-07
-5.01476e-06
1.80981e-06
-7.79564e-06
3.28243e-06
-1.1143e-05
5.3413e-06
-1.49366e-05
8.03695e-06
-1.90111e-05
1.13827e-05
-2.316e-05
1.53482e-05
-2.71487e-05
1.9857e-05
-3.0735e-05
2.47914e-05
-3.36961e-05
3.00034e-05
-3.58544e-05
3.53299e-05
-3.7097e-05
4.06095e-05
-3.7384e-05
4.56956e-05
-3.67444e-05
5.04668e-05
-3.52628e-05
5.4831e-05
-3.30622e-05
5.87258e-05
-3.02862e-05
6.21163e-05
-2.7084e-05
6.49902e-05
-2.3599e-05
6.73534e-05
-1.99613e-05
6.9225e-05
-1.62834e-05
7.0633e-05
-1.26589e-05
7.16109e-05
-9.16245e-06
7.21947e-05
-5.85085e-06
7.24212e-05
-2.76486e-06
7.2326e-05
6.92495e-08
7.19437e-05
2.63684e-06
7.13082e-05
4.92978e-06
7.04525e-05
6.94661e-06
6.94077e-05
8.69146e-06
6.82029e-05
1.01731e-05
6.68649e-05
1.14036e-05
6.54186e-05
1.2398e-05
6.38867e-05
1.3173e-05
6.22896e-05
1.37464e-05
6.06461e-05
1.41368e-05
5.8973e-05
1.43628e-05
5.72851e-05
1.44428e-05
5.55961e-05
1.43947e-05
5.39176e-05
1.42356e-05
5.22602e-05
1.39818e-05
5.06328e-05
1.36483e-05
4.90431e-05
1.32492e-05
4.74977e-05
1.27972e-05
4.60021e-05
1.23038e-05
4.45606e-05
1.17794e-05
4.31767e-05
1.12331e-05
4.1853e-05
1.06731e-05
4.05913e-05
1.01062e-05
3.93927e-05
9.53858e-06
3.82576e-05
8.9752e-06
3.7186e-05
8.42033e-06
3.61774e-05
7.8775e-06
3.52307e-05
7.34952e-06
3.43448e-05
6.83865e-06
3.35179e-05
6.34661e-06
3.27483e-05
5.87468e-06
3.20339e-05
5.42375e-06
3.13725e-05
4.99437e-06
3.07619e-05
4.58682e-06
3.01998e-05
4.20113e-06
2.96837e-05
3.83712e-06
2.92112e-05
3.49448e-06
2.878e-05
3.17271e-06
2.83876e-05
2.87125e-06
2.80318e-05
2.58939e-06
2.77103e-05
2.32639e-06
2.74208e-05
2.08143e-06
2.71613e-05
1.85363e-06
2.69298e-05
1.6421e-06
2.67243e-05
1.4459e-06
2.65431e-05
1.26408e-06
2.63843e-05
1.09566e-06
2.62464e-05
9.39666e-07
2.61279e-05
7.95101e-07
2.60274e-05
6.60976e-07
2.59437e-05
5.36296e-07
2.58756e-05
4.20066e-07
2.58222e-05
3.11293e-07
2.57824e-05
2.08983e-07
2.57556e-05
1.12145e-07
2.57411e-05
1.97855e-08
2.57384e-05