/*--------------------------------*- C++ -*----------------------------------*\
  =========                 |
  \\      /  F ield         | OpenFOAM: The Open Source CFD Toolbox
   \\    /   O peration     | Website:  https://openfoam.org
    \\  /    A nd           | Version:  12
     \\/     M anipulation  |
\*---------------------------------------------------------------------------*/
FoamFile
{
    format      ascii;
    class       volVectorField;
    location    "60";
    object      U;
}
// * * * * * * * * * * * * * * * * * * * * * * * * * * * * * * * * * * * * * //

dimensions      [0 1 -1 0 0 0 0];

internalField   nonuniform List<vector> 
4480
(
(-1.0422e-05 0 8.45135e-06)
(-9.32132e-06 0 -9.58906e-06)
(2.37516e-05 0 -4.11065e-05)
(0.000110697 0 -8.53203e-05)
(0.000268623 0 -0.000141526)
(0.00051339 0 -0.000208169)
(0.00085837 0 -0.000282999)
(0.00131334 0 -0.000363101)
(0.00188352 0 -0.000444947)
(0.0025688 0 -0.000524568)
(0.00336324 0 -0.00059783)
(0.00425509 0 -0.000660762)
(0.00522725 0 -0.000709907)
(0.00625817 0 -0.000742621)
(0.00732325 0 -0.000757279)
(0.00839631 0 -0.000753363)
(0.00945121 0 -0.000731427)
(0.0104633 0 -0.000692963)
(0.0114105 0 -0.000640189)
(0.0122744 0 -0.000575815)
(0.0130407 0 -0.000502799)
(0.0136991 0 -0.000424142)
(0.0142437 0 -0.000342708)
(0.0146725 0 -0.0002611)
(0.0149869 0 -0.000181581)
(0.0151911 0 -0.00010601)
(0.0152917 0 -3.57615e-05)
(0.0152972 0 2.83751e-05)
(0.0152167 0 8.60084e-05)
(0.0150591 0 0.000136929)
(0.0148341 0 0.00018113)
(0.0145512 0 0.000218713)
(0.0142197 0 0.000249896)
(0.0138483 0 0.000274997)
(0.0134455 0 0.000294416)
(0.0130189 0 0.000308608)
(0.0125756 0 0.000318062)
(0.0121219 0 0.000323288)
(0.0116635 0 0.000324793)
(0.0112053 0 0.000323079)
(0.0107514 0 0.000318623)
(0.0103054 0 0.000311875)
(0.00987038 0 0.000303251)
(0.00944856 0 0.000293129)
(0.00904188 0 0.00028185)
(0.00865175 0 0.000269714)
(0.00827919 0 0.000256986)
(0.00792489 0 0.000243891)
(0.00758922 0 0.000230624)
(0.00727232 0 0.000217346)
(0.00697409 0 0.000204192)
(0.0066943 0 0.00019127)
(0.00643255 0 0.000178667)
(0.00618834 0 0.000166451)
(0.0059611 0 0.000154672)
(0.00575017 0 0.000143369)
(0.00555488 0 0.000132567)
(0.00537449 0 0.00012228)
(0.00520828 0 0.000112517)
(0.00505551 0 0.000103278)
(0.00491543 0 9.45589e-05)
(0.00478733 0 8.63516e-05)
(0.00467048 0 7.86438e-05)
(0.00456419 0 7.14212e-05)
(0.00446778 0 6.46672e-05)
(0.00438062 0 5.83639e-05)
(0.00430206 0 5.24922e-05)
(0.00423152 0 4.7032e-05)
(0.00416844 0 4.19629e-05)
(0.00411226 0 3.72639e-05)
(0.00406249 0 3.29138e-05)
(0.00401864 0 2.88913e-05)
(0.00398027 0 2.51748e-05)
(0.00394695 0 2.17431e-05)
(0.00391831 0 1.85746e-05)
(0.00389398 0 1.56483e-05)
(0.00387364 0 1.29428e-05)
(0.00385699 0 1.04371e-05)
(0.00384375 0 8.11049e-06)
(0.0038337 0 5.94221e-06)
(0.00382662 0 3.91183e-06)
(0.00382233 0 1.99925e-06)
(0.00382067 0 1.85338e-07)
(0.00382153 0 -1.54941e-06)
(0.0038248 0 -3.22666e-06)
(0.00383042 0 -4.86854e-06)
(0.00383835 0 -6.49713e-06)
(0.00384858 0 -8.13502e-06)
(0.00386115 0 -9.80565e-06)
(0.00387611 0 -1.15337e-05)
(0.00389357 0 -1.33452e-05)
(0.00391367 0 -1.52685e-05)
(0.00393657 0 -1.73341e-05)
(0.00396251 0 -1.95753e-05)
(0.00399174 0 -2.20293e-05)
(0.00402461 0 -2.47373e-05)
(0.00406149 0 -2.7746e-05)
(0.00410286 0 -3.11083e-05)
(0.00414923 0 -3.4885e-05)
(0.00420124 0 -3.91462e-05)
(0.00425964 0 -4.39739e-05)
(0.00432526 0 -4.94637e-05)
(0.00439912 0 -5.57289e-05)
(0.0044824 0 -6.29042e-05)
(0.00457647 0 -7.11508e-05)
(0.00468297 0 -8.06631e-05)
(0.00480382 0 -9.16768e-05)
(0.00494131 0 -0.00010448)
(0.00509818 0 -0.000119428)
(0.00527771 0 -0.000136958)
(0.00548388 0 -0.000157615)
(0.0057215 0 -0.000182081)
(0.00599649 0 -0.000211205)
(0.0063161 0 -0.000246042)
(0.00668933 0 -0.000287889)
(0.00712732 0 -0.000338298)
(0.00764386 0 -0.000399054)
(0.00825594 0 -0.000472073)
(0.00898512 0 -0.000559672)
(0.00986093 0 -0.000667399)
(0.0109199 0 -0.000814155)
(0.0121771 0 -0.00105183)
(0.0136581 0 -0.00151971)
(0.0161794 0 -0.00288126)
(0.0237906 0 -0.00871696)
(0.0378516 0 -0.0316866)
(0.0424027 0 -0.0805048)
(0.0195254 0 -0.101317)
(-0.00961897 0 -0.103781)
(-0.0347224 0 -0.0843878)
(-0.0305885 0 -0.0328922)
(-0.0156788 0 -0.00925933)
(-0.00769455 0 -0.00302673)
(-0.00519288 0 -0.00150776)
(-0.00381942 0 -0.000977411)
(-0.00268662 0 -0.00071396)
(-0.00176541 0 -0.000552472)
(-0.00103964 0 -0.00043022)
(-0.000483274 0 -0.00032642)
(-0.000217503 0 -0.000213562)
(3.90216e-06 0 8.34718e-06)
(2.20308e-05 0 -2.94604e-05)
(8.3373e-05 0 -9.5082e-05)
(0.00020791 0 -0.000187581)
(0.000416424 0 -0.000305199)
(0.000727787 0 -0.000444683)
(0.00115758 0 -0.000601356)
(0.001717 0 -0.000769125)
(0.00241175 0 -0.00094061)
(0.00324126 0 -0.0011075)
(0.00419812 0 -0.00126113)
(0.00526821 0 -0.00139316)
(0.00643124 0 -0.00149635)
(0.00766197 0 -0.00156514)
(0.00893168 0 -0.00159609)
(0.01021 0 -0.00158812)
(0.0114668 0 -0.00154237)
(0.0126736 0 -0.00146195)
(0.013805 0 -0.00135151)
(0.0148396 0 -0.00121669)
(0.0157608 0 -0.00106367)
(0.0165565 0 -0.000898726)
(0.0172195 0 -0.000727825)
(0.0177471 0 -0.000556401)
(0.0181403 0 -0.000389163)
(0.0184036 0 -0.000229986)
(0.0185437 0 -8.17996e-05)
(0.01857 0 5.36151e-05)
(0.0184929 0 0.000175437)
(0.0183227 0 0.000283261)
(0.0180706 0 0.000376995)
(0.0177476 0 0.000456833)
(0.0173645 0 0.00052322)
(0.0169319 0 0.000576813)
(0.0164595 0 0.000618437)
(0.0159565 0 0.000649034)
(0.0154315 0 0.000669623)
(0.0148921 0 0.000681265)
(0.0143451 0 0.000685023)
(0.0137966 0 0.000681944)
(0.0132517 0 0.00067303)
(0.0127149 0 0.000659227)
(0.0121899 0 0.000641408)
(0.0116797 0 0.000620374)
(0.0111868 0 0.000596842)
(0.0107129 0 0.000571452)
(0.0102596 0 0.000544761)
(0.00982774 0 0.000517252)
(0.00941792 0 0.000489337)
(0.00903043 0 0.000461364)
(0.00866526 0 0.000433619)
(0.00832222 0 0.000406337)
(0.0080009 0 0.000379705)
(0.00770077 0 0.00035387)
(0.00742119 0 0.000328944)
(0.00716142 0 0.000305008)
(0.00692066 0 0.000282119)
(0.00669808 0 0.000260312)
(0.00649281 0 0.000239604)
(0.00630398 0 0.000220001)
(0.0061307 0 0.000201494)
(0.00597209 0 0.000184066)
(0.00582731 0 0.000167694)
(0.0056955 0 0.000152347)
(0.00557585 0 0.000137992)
(0.00546757 0 0.000124591)
(0.00536991 0 0.000112104)
(0.00528213 0 0.000100489)
(0.00520354 0 8.97033e-05)
(0.00513348 0 7.97024e-05)
(0.00507133 0 7.04416e-05)
(0.00501651 0 6.18759e-05)
(0.00496846 0 5.39599e-05)
(0.00492667 0 4.66485e-05)
(0.00489066 0 3.98964e-05)
(0.00486 0 3.36585e-05)
(0.00483427 0 2.78902e-05)
(0.00481312 0 2.25469e-05)
(0.00479622 0 1.75844e-05)
(0.00478325 0 1.2959e-05)
(0.00477398 0 8.62729e-06)
(0.00476817 0 4.54661e-06)
(0.00476562 0 6.75299e-07)
(0.0047662 0 -3.02743e-06)
(0.00476978 0 -6.60615e-06)
(0.00477626 0 -1.01084e-05)
(0.00478561 0 -1.3581e-05)
(0.00479782 0 -1.70718e-05)
(0.00481292 0 -2.06305e-05)
(0.00483098 0 -2.43094e-05)
(0.00485212 0 -2.81639e-05)
(0.00487651 0 -3.22537e-05)
(0.00490436 0 -3.66434e-05)
(0.00493593 0 -4.14038e-05)
(0.00497157 0 -4.66132e-05)
(0.00501165 0 -5.2359e-05)
(0.00505666 0 -5.87396e-05)
(0.00510715 0 -6.5867e-05)
(0.00516377 0 -7.38693e-05)
(0.00522728 0 -8.28946e-05)
(0.00529857 0 -9.31154e-05)
(0.00537867 0 -0.000104733)
(0.00546881 0 -0.000117988)
(0.00557039 0 -0.000133161)
(0.00568509 0 -0.000150594)
(0.00581486 0 -0.000170694)
(0.00596203 0 -0.00019396)
(0.00612934 0 -0.000220997)
(0.00632007 0 -0.000252556)
(0.00653818 0 -0.000289564)
(0.00678843 0 -0.000333182)
(0.00707661 0 -0.000384875)
(0.00740989 0 -0.000446501)
(0.00779711 0 -0.000520438)
(0.00824947 0 -0.000609759)
(0.00878133 0 -0.000718487)
(0.0094116 0 -0.000852006)
(0.0101662 0 -0.00101783)
(0.0110827 0 -0.00122743)
(0.0122203 0 -0.00150171)
(0.0136743 0 -0.00188571)
(0.0155953 0 -0.00247942)
(0.0182667 0 -0.00349929)
(0.0224308 0 -0.00553884)
(0.0294679 0 -0.0107763)
(0.0370895 0 -0.0258967)
(0.0339714 0 -0.0580575)
(0.0165724 0 -0.0758235)
(-0.00627827 0 -0.0775012)
(-0.0250012 0 -0.0609061)
(-0.0283161 0 -0.0272467)
(-0.0202032 0 -0.011315)
(-0.0128335 0 -0.00569638)
(-0.00853914 0 -0.0034731)
(-0.00583791 0 -0.00236151)
(-0.00394603 0 -0.00171871)
(-0.00256666 0 -0.00129953)
(-0.00153537 0 -0.000988653)
(-0.000751726 0 -0.000731915)
(-0.000347134 0 -0.000496986)
(1.84069e-05 0 -1.38097e-05)
(5.29176e-05 0 -8.3796e-05)
(0.000142002 0 -0.00020686)
(0.000301421 0 -0.00038079)
(0.000555104 0 -0.000601868)
(0.000924681 0 -0.000863813)
(0.00142773 0 -0.0011577)
(0.00207668 0 -0.00147196)
(0.00287772 0 -0.00179266)
(0.00382978 0 -0.00210425)
(0.00492407 0 -0.00239058)
(0.00614419 0 -0.00263624)
(0.00746695 0 -0.00282787)
(0.00886369 0 -0.00295534)
(0.0103022 0 -0.00301247)
(0.0117485 0 -0.00299738)
(0.0131693 0 -0.0029123)
(0.0145333 0 -0.002763)
(0.0158127 0 -0.00255801)
(0.0169844 0 -0.00230771)
(0.0180303 0 -0.00202337)
(0.0189375 0 -0.00171644)
(0.0196979 0 -0.00139784)
(0.0203085 0 -0.00107751)
(0.0207701 0 -0.000764074)
(0.0210872 0 -0.000464689)
(0.021267 0 -0.000184844)
(0.0213186 0 7.18264e-05)
(0.0212537 0 0.00030343)
(0.0210832 0 0.00050911)
(0.0208194 0 0.000688584)
(0.0204741 0 0.000842117)
(0.0200595 0 0.000970455)
(0.0195868 0 0.00107475)
(0.0190672 0 0.00115648)
(0.0185108 0 0.00121735)
(0.0179272 0 0.00125921)
(0.017325 0 0.00128402)
(0.016712 0 0.00129373)
(0.0160952 0 0.00129031)
(0.0154804 0 0.0012756)
(0.0148729 0 0.0012514)
(0.0142771 0 0.00121934)
(0.0136965 0 0.00118094)
(0.0131342 0 0.00113758)
(0.0125924 0 0.00109046)
(0.0120728 0 0.00104067)
(0.0115769 0 0.000989126)
(0.0111053 0 0.00093664)
(0.0106586 0 0.000883885)
(0.0102369 0 0.000831425)
(0.00984005 0 0.000779723)
(0.00946778 0 0.000729154)
(0.00911955 0 0.000680011)
(0.0087947 0 0.000632523)
(0.00849247 0 0.000586858)
(0.00821201 0 0.000543134)
(0.00795242 0 0.000501431)
(0.00771274 0 0.000461792)
(0.007492 0 0.000424232)
(0.00728922 0 0.000388744)
(0.00710343 0 0.000355301)
(0.00693364 0 0.000323863)
(0.0067789 0 0.000294376)
(0.00663829 0 0.000266779)
(0.00651091 0 0.000241003)
(0.00639588 0 0.000216974)
(0.00629236 0 0.000194614)
(0.00619957 0 0.000173842)
(0.00611674 0 0.000154573)
(0.00604314 0 0.000136724)
(0.00597811 0 0.000120209)
(0.00592101 0 0.000104941)
(0.00587124 0 9.08354e-05)
(0.00582824 0 7.78047e-05)
(0.0057915 0 6.57632e-05)
(0.00576055 0 5.46253e-05)
(0.00573497 0 4.43059e-05)
(0.00571437 0 3.47205e-05)
(0.0056984 0 2.57852e-05)
(0.00568675 0 1.7417e-05)
(0.00567917 0 9.53348e-06)
(0.00567543 0 2.05411e-06)
(0.00567534 0 -5.09994e-06)
(0.00567877 0 -1.20128e-05)
(0.00568561 0 -1.87744e-05)
(0.0056958 0 -2.54744e-05)
(0.00570933 0 -3.22045e-05)
(0.00572622 0 -3.90599e-05)
(0.00574657 0 -4.61406e-05)
(0.00577048 0 -5.35527e-05)
(0.00579816 0 -6.141e-05)
(0.00582983 0 -6.98359e-05)
(0.0058658 0 -7.89652e-05)
(0.00590644 0 -8.89468e-05)
(0.00595219 0 -9.99468e-05)
(0.00600358 0 -0.000112152)
(0.00606123 0 -0.000125775)
(0.00612588 0 -0.000141058)
(0.00619836 0 -0.000158281)
(0.00627969 0 -0.000177769)
(0.006371 0 -0.000199905)
(0.00647366 0 -0.000225135)
(0.00658922 0 -0.000253995)
(0.00671954 0 -0.000287121)
(0.00686677 0 -0.000325281)
(0.00703346 0 -0.000369407)
(0.0072226 0 -0.000420637)
(0.00743777 0 -0.000480375)
(0.00768327 0 -0.000550364)
(0.00796423 0 -0.000632795)
(0.00828693 0 -0.000730446)
(0.00865908 0 -0.000846888)
(0.00909028 0 -0.000986789)
(0.00959268 0 -0.00115637)
(0.0101821 0 -0.00136419)
(0.0108794 0 -0.00162245)
(0.0117135 0 -0.00194957)
(0.0127255 0 -0.00237525)
(0.0139762 0 -0.00295137)
(0.015555 0 -0.00377498)
(0.0175888 0 -0.00503237)
(0.0202528 0 -0.00707841)
(0.0237633 0 -0.0106171)
(0.0280091 0 -0.0171498)
(0.0307253 0 -0.0293016)
(0.0263813 0 -0.0468949)
(0.0138095 0 -0.0580403)
(-0.00265643 0 -0.059119)
(-0.0161509 0 -0.0487673)
(-0.0207293 0 -0.0306197)
(-0.0178331 0 -0.0179179)
(-0.0133382 0 -0.0109931)
(-0.00963116 0 -0.00718929)
(-0.00683695 0 -0.00496992)
(-0.00473613 0 -0.00359665)
(-0.00314613 0 -0.00268441)
(-0.00192344 0 -0.00202621)
(-0.000965417 0 -0.00151257)
(-0.00044363 0 -0.00108763)
(2.98467e-05 0 -5.63115e-05)
(7.71809e-05 0 -0.000160823)
(0.0001883 0 -0.000345599)
(0.000375638 0 -0.000607397)
(0.000665933 0 -0.000940358)
(0.00108344 0 -0.00133488)
(0.00164774 0 -0.00177731)
(0.00237264 0 -0.00224998)
(0.00326483 0 -0.00273169)
(0.00432285 0 -0.00319883)
(0.00553648 0 -0.00362706)
(0.00688695 0 -0.00399327)
(0.00834799 0 -0.00427763)
(0.0098874 0 -0.00446528)
(0.0114693 0 -0.00454744)
(0.0130565 0 -0.00452175)
(0.0146126 0 -0.00439198)
(0.0161041 0 -0.00416709)
(0.0175016 0 -0.00385998)
(0.0187809 0 -0.00348611)
(0.0199234 0 -0.00306216)
(0.020916 0 -0.00260491)
(0.0217509 0 -0.00213031)
(0.0224251 0 -0.00165281)
(0.0229398 0 -0.00118496)
(0.0232997 0 -0.000737126)
(0.0235124 0 -0.000317358)
(0.0235873 0 6.87519e-05)
(0.0235363 0 0.000418098)
(0.023371 0 0.000729286)
(0.023104 0 0.00100178)
(0.0227481 0 0.00123584)
(0.0223157 0 0.00143249)
(0.021819 0 0.00159332)
(0.0212697 0 0.00172043)
(0.0206786 0 0.00181625)
(0.0200559 0 0.00188349)
(0.0194109 0 0.00192497)
(0.0187521 0 0.00194356)
(0.0180869 0 0.00194212)
(0.017422 0 0.00192341)
(0.016763 0 0.00189007)
(0.0161148 0 0.00184454)
(0.0154816 0 0.00178911)
(0.0148668 0 0.00172582)
(0.0142729 0 0.00165652)
(0.0137021 0 0.00158285)
(0.013156 0 0.00150623)
(0.0126357 0 0.00142789)
(0.0121418 0 0.00134887)
(0.0116747 0 0.00127007)
(0.0112343 0 0.00119221)
(0.0108205 0 0.00111587)
(0.0104327 0 0.00104153)
(0.0100705 0 0.000969559)
(0.0097329 0 0.000900236)
(0.0094192 0 0.000833761)
(0.00912845 0 0.000770271)
(0.00885964 0 0.000709848)
(0.00861176 0 0.00065253)
(0.00838376 0 0.000598319)
(0.0081746 0 0.000547184)
(0.00798322 0 0.000499074)
(0.00780861 0 0.000453916)
(0.00764973 0 0.000411622)
(0.00750562 0 0.000372094)
(0.00737532 0 0.000335222)
(0.0072579 0 0.000300892)
(0.0071525 0 0.000268983)
(0.00705826 0 0.00023937)
(0.0069744 0 0.000211926)
(0.00690016 0 0.000186523)
(0.00683483 0 0.000163029)
(0.00677774 0 0.000141315)
(0.00672829 0 0.000121249)
(0.00668589 0 0.0001027)
(0.00665002 0 8.55398e-05)
(0.0066202 0 6.96372e-05)
(0.00659599 0 5.48636e-05)
(0.00657701 0 4.10912e-05)
(0.00656291 0 2.8193e-05)
(0.00655339 0 1.6043e-05)
(0.00654819 0 4.51717e-06)
(0.00654712 0 -6.50564e-06)
(0.00655001 0 -1.71528e-05)
(0.00655672 0 -2.75595e-05)
(0.0065672 0 -3.78622e-05)
(0.00658141 0 -4.82004e-05)
(0.00659939 0 -5.87193e-05)
(0.0066212 0 -6.95708e-05)
(0.00664699 0 -8.0916e-05)
(0.00667694 0 -9.29276e-05)
(0.0067113 0 -0.000105792)
(0.0067504 0 -0.000119713)
(0.00679463 0 -0.000134915)
(0.00684445 0 -0.000151647)
(0.00690042 0 -0.000170191)
(0.00696322 0 -0.000190864)
(0.0070336 0 -0.000214029)
(0.00711248 0 -0.000240103)
(0.00720089 0 -0.00026957)
(0.00730004 0 -0.000302997)
(0.00741136 0 -0.000341046)
(0.00753646 0 -0.000384507)
(0.00767726 0 -0.000434318)
(0.00783599 0 -0.000491607)
(0.00801523 0 -0.000557739)
(0.00821805 0 -0.000634382)
(0.00844806 0 -0.000723583)
(0.00870954 0 -0.000827891)
(0.0090076 0 -0.000950502)
(0.00934842 0 -0.00109548)
(0.00973951 0 -0.00126809)
(0.0101901 0 -0.00147521)
(0.0107117 0 -0.00172615)
(0.011319 0 -0.00203374)
(0.0120307 0 -0.00241639)
(0.0128716 0 -0.00290155)
(0.0138738 0 -0.00353184)
(0.0150791 0 -0.00437627)
(0.0165371 0 -0.00554984)
(0.0182959 0 -0.00724545)
(0.0203725 0 -0.00978061)
(0.0226701 0 -0.0136632)
(0.0247062 0 -0.019647)
(0.0249436 0 -0.0284421)
(0.020743 0 -0.0389047)
(0.011679 0 -0.0458608)
(0.000215183 0 -0.0466121)
(-0.00951064 0 -0.0403142)
(-0.0139392 0 -0.0297154)
(-0.0136783 0 -0.0205706)
(-0.0114902 0 -0.0142402)
(-0.00901143 0 -0.0100712)
(-0.00677178 0 -0.00731563)
(-0.00488885 0 -0.00544998)
(-0.0033514 0 -0.00413542)
(-0.0021009 0 -0.00316145)
(-0.00107611 0 -0.00240289)
(-0.000499858 0 -0.00179112)
(3.62349e-05 0 -0.000112273)
(9.08804e-05 0 -0.000253462)
(0.000215116 0 -0.000503806)
(0.000420675 0 -0.000859494)
(0.000737064 0 -0.00131256)
(0.00119121 0 -0.00184988)
(0.00180494 0 -0.00245268)
(0.00259364 0 -0.00309652)
(0.00356476 0 -0.0037521)
(0.00471644 0 -0.00438681)
(0.00603691 0 -0.00496715)
(0.00750476 0 -0.00546152)
(0.00909011 0 -0.00584306)
(0.0107568 0 -0.00609197)
(0.0124647 0 -0.006197)
(0.0141732 0 -0.00615581)
(0.0158427 0 -0.00597434)
(0.0174378 0 -0.00566545)
(0.018928 0 -0.00524709)
(0.0202886 0 -0.00474037)
(0.0215014 0 -0.00416778)
(0.0225539 0 -0.00355169)
(0.0234393 0 -0.00291316)
(0.0241555 0 -0.00227115)
(0.0247046 0 -0.00164202)
(0.0250922 0 -0.00103924)
(0.0253264 0 -0.000473301)
(0.025417 0 4.83206e-05)
(0.025376 0 0.000521301)
(0.0252156 0 0.00094364)
(0.0249487 0 0.00131451)
(0.0245882 0 0.00163417)
(0.024147 0 0.00190387)
(0.0236376 0 0.00212564)
(0.0230717 0 0.00230219)
(0.0224608 0 0.00243668)
(0.0218152 0 0.00253263)
(0.0211445 0 0.00259373)
(0.0204576 0 0.00262376)
(0.0197621 0 0.00262648)
(0.0190651 0 0.00260555)
(0.0183726 0 0.00256446)
(0.0176898 0 0.00250649)
(0.0170211 0 0.00243469)
(0.0163702 0 0.00235181)
(0.0157401 0 0.00226037)
(0.0151331 0 0.00216256)
(0.0145511 0 0.00206036)
(0.0139954 0 0.00195544)
(0.0134669 0 0.00184925)
(0.012966 0 0.00174303)
(0.0124929 0 0.00163778)
(0.0120475 0 0.00153436)
(0.0116294 0 0.00143342)
(0.0112382 0 0.00133551)
(0.010873 0 0.00124104)
(0.0105332 0 0.0011503)
(0.0102177 0 0.0010635)
(0.0099256 0 0.000980793)
(0.00965587 0 0.000902236)
(0.00940743 0 0.000827853)
(0.00917921 0 0.00075762)
(0.00897012 0 0.000691479)
(0.00877908 0 0.000629342)
(0.00860504 0 0.000571101)
(0.00844695 0 0.000516628)
(0.0083038 0 0.000465781)
(0.00817463 0 0.00041841)
(0.00805849 0 0.000374353)
(0.00795449 0 0.000333444)
(0.00786177 0 0.000295512)
(0.00777953 0 0.000260383)
(0.007707 0 0.000227881)
(0.00764347 0 0.000197828)
(0.00758826 0 0.000170046)
(0.00754077 0 0.000144358)
(0.00750041 0 0.000120585)
(0.00746666 0 9.85506e-05)
(0.00743906 0 7.80782e-05)
(0.00741717 0 5.89926e-05)
(0.00740062 0 4.11195e-05)
(0.00738908 0 2.42862e-05)
(0.00738227 0 8.32165e-06)
(0.00737995 0 -6.94181e-06)
(0.00738195 0 -2.16774e-05)
(0.00738812 0 -3.60679e-05)
(0.00739838 0 -5.02991e-05)
(0.00741269 0 -6.45619e-05)
(0.00743106 0 -7.90539e-05)
(0.00745357 0 -9.39825e-05)
(0.00748035 0 -0.000109567)
(0.00751159 0 -0.000126041)
(0.00754753 0 -0.000143657)
(0.0075885 0 -0.000162692)
(0.0076349 0 -0.000183446)
(0.00768721 0 -0.000206256)
(0.007746 0 -0.000231497)
(0.00781192 0 -0.000259596)
(0.00788578 0 -0.000291034)
(0.00796846 0 -0.000326367)
(0.00806103 0 -0.000366235)
(0.00816469 0 -0.000411385)
(0.00828085 0 -0.00046269)
(0.00841111 0 -0.000521184)
(0.00855736 0 -0.000588092)
(0.00872174 0 -0.000664881)
(0.00890678 0 -0.000753321)
(0.00911538 0 -0.000855562)
(0.00935094 0 -0.00097424)
(0.00961747 0 -0.00111262)
(0.00991963 0 -0.00127477)
(0.010263 0 -0.00146588)
(0.0106542 0 -0.00169258)
(0.011101 0 -0.00196358)
(0.0116131 0 -0.00229045)
(0.0122018 0 -0.00268903)
(0.012881 0 -0.00318147)
(0.0136667 0 -0.00379956)
(0.014577 0 -0.00459006)
(0.015629 0 -0.00562285)
(0.0168318 0 -0.00700297)
(0.0181693 0 -0.00888568)
(0.0195652 0 -0.0114905)
(0.0208156 0 -0.0151015)
(0.0214527 0 -0.0200122)
(0.0205352 0 -0.0262622)
(0.016822 0 -0.0328703)
(0.0102287 0 -0.0372699)
(0.00224575 0 -0.037801)
(-0.00480745 0 -0.0339619)
(-0.0087131 0 -0.0274152)
(-0.00967396 0 -0.0209793)
(-0.00895999 0 -0.0158092)
(-0.00757018 0 -0.0119416)
(-0.0060174 0 -0.00910874)
(-0.00453442 0 -0.00702746)
(-0.00321232 0 -0.00546842)
(-0.00206438 0 -0.00426533)
(-0.00107597 0 -0.00330721)
(-0.00050569 0 -0.00252648)
(3.59959e-05 0 -0.000173311)
(9.09235e-05 0 -0.000352585)
(0.000216904 0 -0.000672159)
(0.000428895 0 -0.00112803)
(0.000759388 0 -0.0017102)
(0.00123822 0 -0.00240187)
(0.00188984 0 -0.00317865)
(0.00273163 0 -0.0040086)
(0.003772 0 -0.00485323)
(0.00500878 0 -0.00566973)
(0.00642842 0 -0.00641415)
(0.00800627 0 -0.00704528)
(0.00970814 0 -0.00752847)
(0.0114929 0 -0.00783873)
(0.0133158 0 -0.00796259)
(0.0151317 0 -0.00789839)
(0.016898 0 -0.00765521)
(0.0185772 0 -0.00725084)
(0.0201381 0 -0.00670924)
(0.0215564 0 -0.006058)
(0.0228147 0 -0.00532597)
(0.0239022 0 -0.00454144)
(0.0248138 0 -0.00373072)
(0.0255491 0 -0.00291724)
(0.026112 0 -0.00212099)
(0.0265093 0 -0.00135835)
(0.02675 0 -0.000641993)
(0.0268449 0 1.8987e-05)
(0.0268061 0 0.000619208)
(0.026646 0 0.00115606)
(0.0263779 0 0.00162846)
(0.0260148 0 0.00203667)
(0.0255695 0 0.00238221)
(0.0250545 0 0.00266758)
(0.0244817 0 0.0028961)
(0.0238624 0 0.00307166)
(0.0232069 0 0.00319857)
(0.0225249 0 0.0032814)
(0.0218252 0 0.00332481)
(0.0211154 0 0.00333344)
(0.0204027 0 0.00331183)
(0.0196933 0 0.00326433)
(0.0189923 0 0.00319503)
(0.0183044 0 0.00310773)
(0.0176334 0 0.0030059)
(0.0169825 0 0.00289271)
(0.0163542 0 0.00277096)
(0.0157505 0 0.00264314)
(0.0151728 0 0.00251141)
(0.0146223 0 0.00237765)
(0.0140996 0 0.00224345)
(0.013605 0 0.00211012)
(0.0131384 0 0.00197879)
(0.0126997 0 0.00185035)
(0.0122884 0 0.0017255)
(0.0119039 0 0.00160482)
(0.0115455 0 0.00148871)
(0.0112122 0 0.00137749)
(0.0109031 0 0.00127134)
(0.0106173 0 0.0011704)
(0.0103537 0 0.0010747)
(0.0101111 0 0.00098425)
(0.00988862 0 0.00089898)
(0.00968501 0 0.000818797)
(0.00949925 0 0.000743576)
(0.00933027 0 0.000673164)
(0.00917704 0 0.000607392)
(0.00903855 0 0.000546072)
(0.00891383 0 0.000489005)
(0.00880196 0 0.000435984)
(0.00870204 0 0.000386794)
(0.00861323 0 0.000341214)
(0.00853474 0 0.000299022)
(0.00846581 0 0.000259993)
(0.00840573 0 0.000223899)
(0.00835386 0 0.000190513)
(0.0083096 0 0.000159608)
(0.00827238 0 0.000130957)
(0.00824171 0 0.000104334)
(0.00821713 0 7.95147e-05)
(0.00819825 0 5.62749e-05)
(0.00818469 0 3.43922e-05)
(0.00817618 0 1.36458e-05)
(0.00817244 0 -6.18185e-06)
(0.00817329 0 -2.53119e-05)
(0.00817856 0 -4.39753e-05)
(0.00818816 0 -6.241e-05)
(0.00820202 0 -8.08599e-05)
(0.00822017 0 -9.95776e-05)
(0.00824265 0 -0.000118827)
(0.00826959 0 -0.000138888)
(0.00830115 0 -0.000160057)
(0.0083376 0 -0.000182655)
(0.00837924 0 -0.000207027)
(0.00842645 0 -0.000233556)
(0.00847971 0 -0.000262663)
(0.00853956 0 -0.000294817)
(0.00860667 0 -0.000330549)
(0.00868178 0 -0.000370459)
(0.00876579 0 -0.000415232)
(0.00885968 0 -0.000465659)
(0.00896463 0 -0.000522655)
(0.00908197 0 -0.000587288)
(0.00921321 0 -0.000660813)
(0.0093601 0 -0.000744714)
(0.00952464 0 -0.000840758)
(0.0097091 0 -0.000951062)
(0.00991612 0 -0.00107819)
(0.0101487 0 -0.00122525)
(0.0104102 0 -0.00139608)
(0.0107048 0 -0.00159544)
(0.0110368 0 -0.00182929)
(0.0114115 0 -0.00210524)
(0.0118348 0 -0.00243307)
(0.0123134 0 -0.0028256)
(0.0128545 0 -0.0032999)
(0.0134657 0 -0.00387904)
(0.0141538 0 -0.00459466)
(0.0149229 0 -0.0054905)
(0.0157695 0 -0.00662708)
(0.0166744 0 -0.00808676)
(0.0175865 0 -0.0099772)
(0.0183965 0 -0.0124274)
(0.0188977 0 -0.0155651)
(0.0187315 0 -0.0194522)
(0.017349 0 -0.0239207)
(0.014185 0 -0.0282581)
(0.00930219 0 -0.0310993)
(0.0036142 0 -0.0314749)
(-0.00155216 0 -0.0291238)
(-0.00488486 0 -0.0249399)
(-0.00633123 0 -0.0204078)
(-0.00646722 0 -0.0163521)
(-0.00586724 0 -0.0130083)
(-0.00492253 0 -0.0103471)
(-0.00386719 0 -0.00825109)
(-0.00282858 0 -0.00659018)
(-0.00186089 0 -0.00525146)
(-0.000984372 0 -0.00415009)
(-0.000467132 0 -0.00322762)
(2.81229e-05 0 -0.000229398)
(7.52781e-05 0 -0.000446848)
(0.000189987 0 -0.000838584)
(0.000395245 0 -0.00140072)
(0.000726924 0 -0.00212126)
(0.00121815 0 -0.00297957)
(0.00189653 0 -0.00394519)
(0.00278191 0 -0.00497776)
(0.00388404 0 -0.00602839)
(0.00520043 0 -0.00704249)
(0.00671536 0 -0.00796405)
(0.00840023 0 -0.00874081)
(0.0102155 0 -0.00932939)
(0.0121139 0 -0.00969937)
(0.0140449 0 -0.00983546)
(0.0159583 0 -0.00973766)
(0.0178081 0 -0.00941949)
(0.0195547 0 -0.00890506)
(0.0211666 0 -0.00822564)
(0.0226203 0 -0.00741628)
(0.0239004 0 -0.00651291)
(0.0249983 0 -0.00555011)
(0.0259117 0 -0.00455954)
(0.0266429 0 -0.00356898)
(0.0271978 0 -0.00260183)
(0.0275852 0 -0.00167697)
(0.0278158 0 -0.000808899)
(0.0279014 0 -7.89576e-06)
(0.027854 0 0.000719924)
(0.0276871 0 0.00137143)
(0.0274136 0 0.00194536)
(0.0270466 0 0.00244214)
(0.0265989 0 0.0028636)
(0.0260828 0 0.00321278)
(0.0255099 0 0.00349363)
(0.024891 0 0.00371079)
(0.0242363 0 0.00386939)
(0.023555 0 0.00397482)
(0.0228556 0 0.0040326)
(0.0221458 0 0.00404823)
(0.0214322 0 0.00402708)
(0.0207209 0 0.00397431)
(0.020017 0 0.00389477)
(0.0193253 0 0.00379302)
(0.0186493 0 0.00367319)
(0.0179924 0 0.00353909)
(0.0173571 0 0.00339411)
(0.0167456 0 0.00324124)
(0.0161593 0 0.00308314)
(0.0155995 0 0.00292209)
(0.015067 0 0.00276004)
(0.0145621 0 0.00259866)
(0.0140849 0 0.00243931)
(0.0136355 0 0.00228313)
(0.0132134 0 0.00213104)
(0.0128181 0 0.00198375)
(0.0124489 0 0.0018418)
(0.0121051 0 0.00170561)
(0.0117858 0 0.00157546)
(0.01149 0 0.00145152)
(0.0112168 0 0.00133387)
(0.010965 0 0.00122255)
(0.0107337 0 0.00111748)
(0.0105216 0 0.00101859)
(0.0103279 0 0.000925738)
(0.0101514 0 0.000838744)
(0.00999116 0 0.000757416)
(0.00984606 0 0.000681537)
(0.00971517 0 0.000610871)
(0.00959756 0 0.000545172)
(0.00949231 0 0.000484182)
(0.00939858 0 0.000427637)
(0.00931554 0 0.000375267)
(0.00924244 0 0.0003268)
(0.00917854 0 0.000281958)
(0.00912318 0 0.000240466)
(0.00907573 0 0.000202046)
(0.00903563 0 0.000166421)
(0.00900234 0 0.000133314)
(0.0089754 0 0.00010245)
(0.00895439 0 7.3555e-05)
(0.00893894 0 4.63546e-05)
(0.00892873 0 2.05772e-05)
(0.00892347 0 -4.04763e-06)
(0.00892298 0 -2.77891e-05)
(0.00892708 0 -5.09263e-05)
(0.00893563 0 -7.37501e-05)
(0.00894859 0 -9.65587e-05)
(0.00896594 0 -0.00011966)
(0.00898772 0 -0.000143375)
(0.00901404 0 -0.000168044)
(0.00904506 0 -0.000194024)
(0.009081 0 -0.000221704)
(0.00912216 0 -0.000251501)
(0.00916889 0 -0.000283871)
(0.00922164 0 -0.000319319)
(0.00928093 0 -0.000358404)
(0.00934737 0 -0.000401753)
(0.00942166 0 -0.000450077)
(0.00950462 0 -0.00050418)
(0.00959719 0 -0.000564987)
(0.00970043 0 -0.000633564)
(0.00981554 0 -0.000711147)
(0.00994389 0 -0.000799182)
(0.010087 0 -0.000899365)
(0.0102467 0 -0.00101371)
(0.0104249 0 -0.0011446)
(0.0106238 0 -0.0012949)
(0.0108458 0 -0.00146809)
(0.0110938 0 -0.00166836)
(0.0113706 0 -0.0019009)
(0.0116798 0 -0.00217212)
(0.0120247 0 -0.00249003)
(0.0124091 0 -0.00286478)
(0.0128365 0 -0.00330931)
(0.0133099 0 -0.00384032)
(0.0138312 0 -0.00447954)
(0.0143989 0 -0.00525522)
(0.0150066 0 -0.0062041)
(0.0156372 0 -0.00737305)
(0.0162566 0 -0.00881972)
(0.0168014 0 -0.0106098)
(0.0171635 0 -0.0128069)
(0.0171722 0 -0.0154474)
(0.0165799 0 -0.0184914)
(0.0150781 0 -0.0217326)
(0.0124221 0 -0.0246783)
(0.0087207 0 -0.0265705)
(0.00453915 0 -0.0268485)
(0.000680996 0 -0.0253873)
(-0.00212462 0 -0.0226352)
(-0.00368967 0 -0.0194156)
(-0.00427652 0 -0.0162804)
(-0.00420099 0 -0.0134879)
(-0.00373051 0 -0.0111086)
(-0.00305791 0 -0.00912013)
(-0.00230898 0 -0.0074622)
(-0.00155376 0 -0.00606727)
(-0.000832777 0 -0.00487675)
(-0.000398436 0 -0.00384349)
(1.20327e-05 0 -0.00026944)
(4.27408e-05 0 -0.000523615)
(0.000132168 0 -0.000989697)
(0.000316731 0 -0.00166402)
(0.000636178 0 -0.00253268)
(0.00112739 0 -0.00357101)
(0.00182177 0 -0.00474197)
(0.00274226 0 -0.00599578)
(0.00390028 0 -0.00727162)
(0.00529307 0 -0.0085012)
(0.00690229 0 -0.00961439)
(0.0086944 0 -0.0105461)
(0.0106232 0 -0.0112431)
(0.012634 0 -0.0116691)
(0.0146691 0 -0.0118079)
(0.0166724 0 -0.0116624)
(0.0185939 0 -0.0112522)
(0.0203923 0 -0.0106097)
(0.0220362 0 -0.00977504)
(0.0235037 0 -0.00879187)
(0.0247821 0 -0.00770403)
(0.0258663 0 -0.00655279)
(0.0267574 0 -0.00537523)
(0.027461 0 -0.00420326)
(0.0279861 0 -0.0030633)
(0.0283438 0 -0.0019763)
(0.0285468 0 -0.000958007)
(0.0286084 0 -1.93493e-05)
(0.0285409 0 0.000833253)
(0.0283583 0 0.00159636)
(0.0280738 0 0.00226875)
(0.0277003 0 0.00285112)
(0.0272503 0 0.0033458)
(0.0267357 0 0.00375644)
(0.0261675 0 0.00408772)
(0.0255561 0 0.00434505)
(0.024911 0 0.00453436)
(0.0242408 0 0.00466187)
(0.0235534 0 0.0047339)
(0.022856 0 0.00475677)
(0.0221548 0 0.00473662)
(0.0214555 0 0.00467935)
(0.020763 0 0.00459054)
(0.0200816 0 0.00447539)
(0.0194149 0 0.0043387)
(0.018766 0 0.00418484)
(0.0181375 0 0.00401774)
(0.0175315 0 0.00384091)
(0.0169495 0 0.00365743)
(0.0163928 0 0.00346999)
(0.0158622 0 0.0032809)
(0.0153583 0 0.00309214)
(0.0148812 0 0.00290535)
(0.0144309 0 0.00272191)
(0.0140073 0 0.00254292)
(0.0136098 0 0.00236927)
(0.013238 0 0.00220166)
(0.0128912 0 0.00204059)
(0.0125685 0 0.00188644)
(0.0122691 0 0.00173944)
(0.0119921 0 0.00159975)
(0.0117364 0 0.00146739)
(0.011501 0 0.00134234)
(0.0112851 0 0.00122452)
(0.0110874 0 0.00111379)
(0.010907 0 0.00100994)
(0.0107429 0 0.000912786)
(0.0105941 0 0.000822063)
(0.0104597 0 0.000737511)
(0.0103386 0 0.000658847)
(0.0102301 0 0.000585774)
(0.0101333 0 0.000517986)
(0.0100473 0 0.000455168)
(0.00997141 0 0.000397)
(0.00990488 0 0.000343161)
(0.00984704 0 0.000293323)
(0.00979726 0 0.000247162)
(0.00975497 0 0.000204349)
(0.00971964 0 0.000164559)
(0.00969078 0 0.000127464)
(0.00966796 0 9.27413e-05)
(0.00965081 0 6.00655e-05)
(0.009639 0 2.91133e-05)
(0.00963223 0 -4.39141e-07)
(0.00963029 0 -2.89092e-05)
(0.009633 0 -5.6623e-05)
(0.00964022 0 -8.39245e-05)
(0.00965188 0 -0.000111165)
(0.00966794 0 -0.000138706)
(0.00968843 0 -0.000166926)
(0.00971344 0 -0.00019622)
(0.0097431 0 -0.00022701)
(0.00977761 0 -0.000259745)
(0.00981724 0 -0.00029491)
(0.0098623 0 -0.000333033)
(0.0099132 0 -0.000374693)
(0.00997041 0 -0.000420533)
(0.0100345 0 -0.000471268)
(0.010106 0 -0.000527704)
(0.0101858 0 -0.00059075)
(0.0102746 0 -0.000661446)
(0.0103734 0 -0.000740982)
(0.0104833 0 -0.000830731)
(0.0106053 0 -0.000932286)
(0.0107408 0 -0.00104751)
(0.0108913 0 -0.00117858)
(0.0110582 0 -0.00132807)
(0.0112434 0 -0.00149905)
(0.0114487 0 -0.00169517)
(0.011676 0 -0.00192083)
(0.0119273 0 -0.00218135)
(0.0122047 0 -0.00248321)
(0.01251 0 -0.00283437)
(0.0128448 0 -0.00324466)
(0.0132097 0 -0.00372626)
(0.0136042 0 -0.00429435)
(0.0140252 0 -0.0049678)
(0.0144657 0 -0.0057699)
(0.0149122 0 -0.0067289)
(0.0153411 0 -0.00787786)
(0.0157132 0 -0.00925293)
(0.0159664 0 -0.0108883)
(0.0160087 0 -0.0128056)
(0.015712 0 -0.0149937)
(0.0149155 0 -0.0173771)
(0.0134519 0 -0.0197709)
(0.0112262 0 -0.0218415)