/*--------------------------------*- C++ -*----------------------------------*\
  =========                 |
  \\      /  F ield         | OpenFOAM: The Open Source CFD Toolbox
   \\    /   O peration     | Website:  https://openfoam.org
    \\  /    A nd           | Version:  12
     \\/     M anipulation  |
\*---------------------------------------------------------------------------*/
FoamFile
{
    format      ascii;
    class       volScalarField;
    location    "500";
    object      T;
}
// * * * * * * * * * * * * * * * * * * * * * * * * * * * * * * * * * * * * * //

dimensions      [];

internalField   nonuniform List<scalar> 
4480
(
5.55399e-06
0.000273063
0.0254248
0.13362
0.275119
0.40617
0.514421
0.599989
0.666556
0.718165
0.758279
0.789619
0.81425
0.833724
0.849194
0.861527
0.87137
0.879217
0.88544
0.890323
0.894092
0.896917
0.898934
0.900246
0.900937
0.901074
0.900711
0.900079
0.899439
0.898787
0.898123
0.897442
0.896739
0.896011
0.895255
0.894468
0.893645
0.892785
0.891877
0.890924
0.889923
0.888861
0.887737
0.88655
0.885292
0.883954
0.882533
0.881027
0.879423
0.877714
0.8759
0.873975
0.871923
0.869742
0.867424
0.864958
0.862344
0.859574
0.856631
0.853517
0.850215
0.846724
0.843033
0.839139
0.835023
0.830693
0.826124
0.821328
0.816275
0.81098
0.805417
0.799588
0.79348
0.787089
0.780405
0.773419
0.766125
0.758512
0.750572
0.742298
0.73368
0.724709
0.715376
0.705726
0.695768
0.685496
0.674908
0.664003
0.652781
0.641242
0.62939
0.61723
0.604772
0.592029
0.579022
0.565776
0.552333
0.538739
0.525064
0.511388
0.497814
0.484462
0.471468
0.459006
0.447249
0.436396
0.426663
0.418274
0.411457
0.406446
0.403474
0.402768
0.40454
0.408998
0.416317
0.426656
0.440121
0.456776
0.476623
0.499675
0.526219
0.557216
0.594337
0.641698
0.715542
0.82339
0.898946
0.955934
0.945653
0.866205
0.789814
0.676533
0.575793
0.494849
0.420687
0.349689
0.280073
0.210457
0.141011
0.0712123
2.27142e-06
0.00698135
0.125453
0.338753
0.528963
0.667895
0.762928
0.826852
0.870025
0.899593
0.920216
0.93489
0.945547
0.953432
0.959357
0.963875
0.967353
0.970045
0.972131
0.973743
0.974976
0.975892
0.976547
0.976977
0.977214
0.977277
0.977185
0.976836
0.976147
0.975152
0.973883
0.972374
0.970659
0.968765
0.966718
0.964547
0.962273
0.959917
0.957491
0.955016
0.952503
0.949963
0.9474
0.944826
0.942244
0.939655
0.937063
0.934467
0.931865
0.929256
0.926637
0.924011
0.921365
0.918698
0.916007
0.913282
0.910526
0.907728
0.904882
0.901989
0.899034
0.896023
0.89294
0.889786
0.886557
0.883253
0.87986
0.876374
0.872801
0.869136
0.865368
0.8615
0.857528
0.853452
0.84926
0.84496
0.840547
0.836012
0.83137
0.826606
0.82172
0.816723
0.811601
0.806375
0.801059
0.795646
0.790142
0.784562
0.778901
0.773179
0.767403
0.761587
0.755747
0.749907
0.74409
0.738318
0.732634
0.727065
0.721658
0.716467
0.711549
0.706964
0.702789
0.699098
0.695991
0.693553
0.691901
0.691134
0.691383
0.692761
0.695393
0.699389
0.704866
0.711916
0.720613
0.731014
0.74314
0.756994
0.772558
0.789839
0.808917
0.829997
0.853332
0.879112
0.907113
0.935052
0.958367
0.973896
0.96152
0.915893
0.867861
0.813825
0.754855
0.691521
0.623044
0.548473
0.46673
0.377037
0.279932
0.179552
0.000397469
0.0482699
0.291273
0.544315
0.718288
0.823562
0.885241
0.921631
0.94366
0.957483
0.966514
0.972678
0.977053
0.980269
0.982698
0.984571
0.986034
0.987183
0.988089
0.988797
0.989345
0.989757
0.990056
0.990257
0.990372
0.99041
0.990378
0.990258
0.990016
0.989652
0.989167
0.988552
0.987809
0.986928
0.985913
0.984761
0.983477
0.982064
0.980531
0.978881
0.977127
0.975274
0.973336
0.971319
0.969233
0.96709
0.964893
0.962654
0.960376
0.958069
0.955737
0.953384
0.951011
0.948621
0.946222
0.943805
0.941381
0.938944
0.936493
0.934032
0.931556
0.929069
0.926562
0.924042
0.921504
0.918944
0.916366
0.913765
0.911138
0.908491
0.905809
0.903106
0.900372
0.89761
0.89481
0.891983
0.889126
0.886232
0.883305
0.880352
0.877359
0.87434
0.871284
0.868206
0.865097
0.861973
0.858839
0.855695
0.852543
0.8494
0.84627
0.843165
0.840102
0.837087
0.834146
0.831299
0.828565
0.825973
0.823555
0.821346
0.819377
0.817693
0.816346
0.815374
0.814841
0.814802
0.815307
0.816424
0.818218
0.82074
0.824048
0.828191
0.833214
0.839143
0.845998
0.853771
0.86245
0.871995
0.882356
0.893477
0.905288
0.91769
0.930509
0.943407
0.955819
0.966864
0.975341
0.979709
0.970764
0.941568
0.910552
0.875906
0.836051
0.7894
0.734153
0.668183
0.589047
0.49437
0.382991
0.257161
0.00529306
0.158569
0.484141
0.717476
0.845141
0.910145
0.943388
0.961088
0.971114
0.977252
0.98133
0.984252
0.986475
0.988223
0.989626
0.990759
0.991679
0.99242
0.993014
0.993483
0.993848
0.994125
0.994326
0.994467
0.994551
0.994586
0.994579
0.994523
0.994411
0.994245
0.994022
0.993736
0.993386
0.992964
0.992462
0.991879
0.991208
0.990442
0.989582
0.988624
0.987569
0.986417
0.985171
0.983836
0.982414
0.980915
0.979341
0.977701
0.976
0.974247
0.972448
0.970607
0.968733
0.966829
0.964903
0.96296
0.961002
0.95903
0.957055
0.955071
0.953089
0.951101
0.949117
0.947136
0.945156
0.943179
0.941211
0.939242
0.937281
0.935321
0.933365
0.931415
0.929465
0.92752
0.925575
0.923631
0.92169
0.919754
0.917817
0.915877
0.913941
0.91201
0.910087
0.908155
0.90623
0.904313
0.902405
0.900515
0.898645
0.896797
0.894979
0.893202
0.891476
0.889805
0.888212
0.886699
0.885295
0.884007
0.88286
0.881877
0.881086
0.880506
0.880172
0.880112
0.880365
0.880954
0.881926
0.883306
0.885132
0.887431
0.890236
0.893563
0.89743
0.901843
0.906793
0.912262
0.918222
0.924628
0.931419
0.938515
0.945821
0.953192
0.960439
0.967288
0.973379
0.978236
0.98123
0.981458
0.97506
0.955047
0.932979
0.908416
0.879839
0.84533
0.80235
0.747432
0.676012
0.582376
0.460612
0.30725
0.0280983
0.331406
0.666651
0.842038
0.919371
0.953097
0.968697
0.976669
0.981304
0.984422
0.986778
0.988696
0.9903
0.991646
0.992766
0.993683
0.994427
0.995021
0.995486
0.995844
0.996115
0.996315
0.996457
0.996551
0.996609
0.996636
0.996636
0.996606
0.996542
0.996444
0.996312
0.996143
0.995939
0.995693
0.995405
0.995069
0.994678
0.994233
0.993724
0.993152
0.992508
0.991795
0.991006
0.990145
0.98921
0.988203
0.987127
0.985985
0.98478
0.983518
0.982204
0.980842
0.979438
0.977998
0.976529
0.975037
0.973524
0.971993
0.970454
0.968908
0.967359
0.96581
0.964267
0.962732
0.961199
0.959683
0.958176
0.95668
0.955201
0.953735
0.952285
0.950846
0.949427
0.94802
0.946631
0.945254
0.943897
0.942551
0.941215
0.939899
0.938595
0.937305
0.936033
0.93477
0.933522
0.932291
0.931076
0.929879
0.928708
0.927566
0.926456
0.925382
0.924357
0.923383
0.922468
0.921623
0.920861
0.920196
0.919636
0.919203
0.918907
0.918767
0.918806
0.919042
0.919493
0.920185
0.921134
0.922361
0.923886
0.925729
0.927893
0.930397
0.933236
0.936412
0.93991
0.943705
0.947771
0.952061
0.956521
0.961071
0.96562
0.970052
0.974211
0.977899
0.980864
0.982791
0.983247
0.981606
0.976464
0.962337
0.94522
0.926286
0.90447
0.878181
0.844932
0.800715
0.739349
0.651364
0.523707
0.341894
0.0862772
0.525011
0.808443
0.91726
0.956512
0.971878
0.978885
0.982767
0.985415
0.987549
0.989432
0.991105
0.992558
0.993787
0.99479
0.995592
0.996217
0.996688
0.997039
0.997286
0.997456
0.997567
0.997636
0.997673
0.99769
0.997693
0.997687
0.997671
0.997632
0.997572
0.99749
0.997385
0.997257
0.997103
0.996923
0.996711
0.996467
0.996186
0.995865
0.995502
0.995093
0.994633
0.99412
0.993554
0.992933
0.992254
0.991519
0.990728
0.989886
0.98899
0.988046
0.987058
0.986029
0.984964
0.983866
0.982743
0.981599
0.980435
0.979257
0.978071
0.976883
0.975691
0.974503
0.97332
0.972144
0.970981
0.969827
0.96869
0.967571
0.966464
0.965376
0.964305
0.963254
0.962222
0.961206
0.960211
0.95923
0.958272
0.957331
0.956405
0.955496
0.954609
0.953739
0.952887
0.952044
0.951219
0.950415
0.94963
0.948866
0.948127
0.947419
0.946743
0.946104
0.945505
0.944956
0.944463
0.944034
0.943679
0.943402
0.943214
0.943133
0.943163
0.943321
0.943621
0.944071
0.94469
0.945483
0.946472
0.947662
0.949059
0.950677
0.952509
0.954557
0.956813
0.959264
0.961885
0.964651
0.967518
0.970441
0.973351
0.976173
0.978807
0.981131
0.982992
0.984202
0.984517
0.983613
0.98104
0.976166
0.966221
0.952177
0.936592
0.918807
0.897692
0.871292
0.835835
0.784649
0.705345
0.576755
0.368003
0.186522
0.698531
0.898877
0.954972
0.972512
0.979448
0.983045
0.985472
0.987494
0.989386
0.991196
0.992844
0.994253
0.995399
0.996297
0.996978
0.997469
0.997805
0.998013
0.998126
0.998169
0.998164
0.998133
0.998092
0.998051
0.998018
0.997994
0.997983
0.997963
0.997935
0.997897
0.997846
0.997781
0.9977
0.997601
0.99748
0.997336
0.997167
0.996969
0.996741
0.996479
0.99618
0.995845
0.995469
0.995053
0.994591
0.994086
0.993536
0.992945
0.992309
0.991633
0.99092
0.990169
0.989385
0.988573
0.987735
0.986873
0.985997
0.985106
0.984204
0.983297
0.982385
0.981475
0.980567
0.979669
0.978779
0.977897
0.97703
0.976175
0.975338
0.974515
0.973711
0.97292
0.972152
0.9714
0.970665
0.969946
0.969245
0.968564
0.967903
0.967252
0.966624
0.966015
0.965414
0.96483
0.964263
0.963711
0.963175
0.96266
0.962167
0.961695
0.961251
0.960839
0.960456
0.960114
0.95981
0.959558
0.959359
0.959217
0.959145
0.959145
0.959231
0.959408
0.959682
0.960067
0.960568
0.961193
0.961951
0.962843
0.963881
0.965059
0.966379
0.967837
0.969425
0.971125
0.972917
0.974778
0.976674
0.978558
0.980378
0.982067
0.983539
0.984695
0.985414
0.985537
0.984871
0.983166
0.980084
0.9752
0.967697
0.956134
0.942743
0.927476
0.909534
0.887572
0.858441
0.815994
0.746486
0.621291
0.389141
0.321047
0.827551
0.945782
0.97088
0.978913
0.982674
0.985061
0.987001
0.988854
0.990745
0.992612
0.994272
0.99563
0.996676
0.997446
0.99798
0.998317
0.998488
0.998529
0.998472
0.998352
0.998197
0.998038
0.997891
0.99777
0.997684
0.997636
0.997624
0.997622
0.997626
0.997634
0.99764
0.997643
0.997638
0.997621
0.99759
0.997539
0.99747
0.997378
0.997259
0.997116
0.996941
0.996736
0.996498
0.996226
0.995921
0.99558
0.995203
0.99479
0.994344
0.993862
0.993346
0.992802
0.992229
0.991628
0.991005
0.990362
0.989703
0.989029
0.988347
0.987658
0.986962
0.986268
0.985575
0.984884
0.984202
0.983528
0.982866
0.982212
0.981571
0.980946
0.980338
0.979739
0.979161
0.978594
0.978044
0.977511
0.976992
0.976491
0.976004
0.97553
0.975077
0.974635
0.974209
0.973792
0.973389
0.972999
0.972622
0.972262
0.971923
0.971596
0.971293
0.971015
0.970759
0.970531
0.970338
0.970179
0.970061
0.969985
0.969962
0.969989
0.970081
0.970232
0.970458
0.970761
0.971143
0.971615
0.972173
0.972828
0.973574
0.974419
0.975352
0.97637
0.977465
0.978623
0.979823
0.981044
0.982253
0.983411
0.984476
0.98538
0.986061
0.986427
0.986378
0.98578
0.984475
0.982259
0.978884
0.974048
0.967422
0.958212
0.946384
0.932828
0.916907
0.897743
0.872802
0.836995
0.776758
0.657932
0.407239
0.476804
0.903691
0.96515
0.977098
0.981758
0.984365
0.986287
0.988044
0.989888
0.991866
0.993827
0.995493
0.996766
0.997682
0.9983
0.998671
0.998828
0.998802
0.998633
0.998362
0.998032
0.997686
0.997357
0.997071
0.996847
0.996693
0.99661
0.996595
0.99661
0.996653
0.996716
0.996793
0.996875
0.996961
0.997042
0.997111
0.997168
0.997204
0.997219
0.997213
0.997178
0.99712
0.99703
0.996911
0.996762
0.996581
0.996368
0.996125
0.995852
0.995547
0.995213
0.99485
0.994461
0.994047
0.993608
0.993151
0.992672
0.99218
0.991673
0.991157
0.990636
0.990108
0.989577
0.989047
0.988521
0.987997
0.987481
0.986972
0.986471
0.985984
0.985506
0.985039
0.984586
0.984141
0.983713
0.983298
0.982895
0.982507
0.98213
0.981768
0.981415
0.981079
0.980755
0.980443
0.980137
0.979843
0.979561
0.97929
0.979033
0.978785
0.978555
0.978337
0.978141
0.977961
0.977804
0.977671
0.977565
0.977484
0.977441
0.977429
0.977461
0.977531
0.97765
0.977818
0.978041
0.978318
0.978659
0.979058
0.979519
0.980041
0.980627
0.981264
0.981953
0.982681
0.983435
0.984197
0.98495
0.985659
0.986292
0.986806
0.987149
0.987263
0.987066
0.986468
0.985363
0.983615
0.981061
0.977504
0.972723
0.966483
0.958557
0.948373
0.936066
0.921528
0.904193
0.881928
0.850737
0.79824
0.687188
0.423421
0.63294
0.936824
0.971798
0.97994
0.983357
0.985441
0.987133
0.988832
0.990728
0.992834
0.994902
0.996537
0.997687
0.998449
0.998908
0.999098
0.999046
0.998778
0.998342
0.997794
0.997193
0.996596
0.99605
0.995588
0.995233
0.994994
0.994871
0.99485
0.99489
0.994981
0.995115
0.99528
0.995466
0.995662
0.995861
0.996055
0.996236
0.996399
0.99654
0.996656
0.996745
0.996805
0.996832
0.996829
0.996796
0.996733
0.996637
0.99651
0.996354
0.99617
0.995954
0.995714
0.995448
0.995158
0.994848
0.994521
0.994172
0.993811
0.993436
0.993049
0.992657
0.992259
0.991857
0.991454
0.991052
0.990652
0.990257
0.989868
0.989484
0.989109
0.988739
0.988383
0.988034
0.987698
0.987369
0.987051
0.986745
0.986447
0.986163
0.985886
0.985622
0.985368
0.985122
0.98489
0.984661
0.984443
0.984233
0.984031
0.983836
0.983656
0.983483
0.983323
0.983175
0.983045
0.982928
0.982829
0.982746
0.982688
0.982653
0.98264
0.982659
0.982705
0.982784
0.9829
0.983051
0.98324
0.983469
0.983735
0.984044
0.98439
0.984769
0.985179
0.985612
0.98606
0.986507
0.986938
0.987332
0.987662
0.987899
0.988
0.987923
0.987607
0.986989
0.985986
0.98451
0.982438
0.979646
0.975969
0.971239
0.965267
0.957862
0.948839
0.937849
0.92433
0.908259
0.887729
0.859583
0.81295
0.709699
0.438386
0.743324
0.954393
0.976033
0.981661
0.984393
0.986187
0.987751
0.989441
0.991422
0.993685
0.995851
0.997418
0.998414
0.999014
0.999305
0.999297
0.998992
0.99842
0.99764
0.996734
0.995784
0.994866
0.994044
0.993364
0.992847
0.992509
0.992343
0.992318
0.992392
0.99255
0.992778
0.993059
0.993375
0.993714
0.994062
0.994408
0.994742
0.995056
0.995348
0.995608
0.995837
0.996034
0.996193
0.996316
0.996403
0.996456
0.996475
0.99646
0.996414
0.996337
0.996231
0.996098
0.995941
0.995758
0.995553
0.995328
0.995088
0.994832
0.994561
0.994281
0.993993
0.993697
0.993397
0.993094
0.99279
0.992487
0.992187
0.991887
0.991596
0.991306
0.991026
0.990751
0.990483
0.990224
0.989969
0.989727
0.989491
0.989263
0.989044
0.988829
0.988625
0.988432
0.988242
0.988063
0.987892
0.987723
0.98756
0.987404
0.987259
0.987116
0.986985
0.98686
0.986744
0.98664
0.986543
0.986464
0.986397
0.986342
0.986303
0.986285
0.986285
0.986305
0.986343
0.98641
0.986494
0.986608
0.986742
0.986902
0.987084
0.987285
0.987504
0.987732
0.987962
0.988187
0.988393
0.988561
0.988676
0.988708
0.988631
0.988411
0.988004
0.987358
0.986413
0.985101
0.983338
0.981026
0.978056
0.974295
0.969604
0.963822
0.956781
0.948291
0.938105
0.925842
0.910698
0.891362
0.865187
0.822642
0.726272
0.452587
0.829476
0.964157
0.978793
0.983029
0.98516
0.986713
0.9882
0.989911
0.992
0.994428
0.996694
0.998146
0.998966
0.99941
0.999534
0.999296
0.998674
0.997706
0.99648
0.995111
0.993716
0.992398
0.991238
0.990293
0.989589
0.98914
0.988934
0.988915
0.98904
0.989292
0.989645
0.990076
0.990563
0.991082
0.991617
0.992153
0.992677
0.993178
0.993648
0.99408
0.994472
0.994823
0.995132
0.995394
0.995617
0.995795
0.995934
0.996034
0.996098
0.996127
0.996124
0.996091
0.99603
0.995944
0.995834
0.995703
0.995553
0.995387
0.995207
0.995014
0.994811
0.9946
0.994382
0.99416
0.993937
0.993711
0.993485
0.99326
0.993037
0.992818
0.992603
0.992393
0.992186
0.991986
0.991791
0.991603
0.991422
0.991243
0.991071
0.990906
0.990748
0.990597
0.990448
0.990308
0.99017
0.99004
0.98991
0.989787
0.989669
0.989554
0.989445
0.989343
0.989247
0.989156
0.989075
0.989002
0.988936
0.988881
0.988837
0.988802
0.988779
0.988771
0.988776
0.988793
0.988824
0.988867
0.988922
0.98899
0.989067
0.989149
0.989231
0.989309
0.989376
0.989418
0.989423
0.98938
0.989267
0.989063
0.988735
0.988255
0.987582
0.98667
0.985463
0.983904
0.981918
0.979417
0.976311
0.972488
0.967821
0.962177
0.955396
0.947289
0.937601
0.925942
0.91166
0.89349
0.868614
0.828713
0.737795
0.466352
0.885732
0.970149
0.980685
0.984008
0.985787
0.987116
0.988521
0.990263
0.992464
0.995069
0.997428
0.998728
0.999367
0.99967
0.999623
0.999105
0.998071
0.996587
0.994788
0.992833
0.990886
0.989079
0.987515
0.98626
0.985347
0.984785
0.984552
0.984552
0.984758
0.985139
0.985661
0.986289
0.986992
0.987741
0.988511
0.989282
0.990036
0.990759
0.991441
0.992077
0.992662
0.993192
0.993668
0.994089
0.994457
0.994773
0.995043
0.995266
0.995442
0.995581
0.995682
0.995749
0.995781
0.995786
0.995765
0.995719
0.995652
0.995565
0.995465
0.995346
0.995219
0.99508
0.994933
0.99478
0.99462
0.99446
0.994294
0.994129
0.993964
0.993801
0.993638
0.993479
0.993323
0.993168
0.993019
0.992871
0.992729
0.99259
0.992456
0.992327
0.9922
0.992076
0.99196
0.991845
0.991734
0.991626
0.991521
0.991418
0.991319
0.991221
0.991128
0.991039
0.990953
0.990868
0.990792
0.990719
0.990649
0.990588
0.99053
0.990477
0.990433
0.990396
0.990362
0.990339
0.990318
0.990301
0.990286
0.990275
0.990259
0.990239
0.990207
0.990159
0.990083
0.989976
0.989817
0.989596
0.989292
0.988887
0.988352
0.987656
0.986762
0.985634
0.984215
0.982454
0.980289
0.977637
0.974421
0.970544
0.965896
0.960351
0.95376
0.945934
0.936615
0.925418
0.911689
0.894199
0.870251
0.831928
0.745059
0.479908
0.911468
0.975824
0.982029
0.98471
0.986227
0.987455
0.988753
0.990507
0.992824
0.995611
0.998065
0.999178
0.999639
0.999832
0.999596
0.998719
0.997149
0.994998
0.992473
0.989796
0.98718
0.984793
0.982761
0.981163
0.980029
0.979362
0.979129
0.979175
0.979499
0.980055
0.980797
0.981677
0.982654
0.983687
0.984743
0.985797
0.986823
0.987808
0.988742
0.989611
0.990415
0.991151
0.991817
0.992415
0.992947
0.993416
0.993825
0.994178
0.994478
0.99473
0.994937
0.995104
0.995232
0.995327
0.99539
0.995424
0.995437
0.995426
0.995395
0.995348
0.995284
0.995209
0.995123
0.99503
0.994927
0.994821
0.994709
0.994594
0.994476
0.994358
0.99424
0.99412
0.994001
0.993886
0.993771
0.993655
0.993546
0.993435
0.993329
0.993222
0.993122
0.99302
0.992923
0.992828
0.992737
0.992644
0.992553
0.992465
0.992376
0.99229
0.992202
0.992118
0.992035
0.991955
0.991874
0.991796
0.991719
0.991645
0.991574
0.991504
0.991435
0.991369
0.991301
0.991234
0.991165
0.991093
0.991017
0.990932
0.990837
0.990727
0.990596
0.990435
0.990241
0.99
0.9897
0.989327
0.988865
0.988289
0.987576
0.986698
0.985621
0.984307
0.98271
0.980786
0.97847
0.975693
0.97239
0.968468
0.96383
0.958358
0.951909
0.944292
0.935254
0.92441
0.911112
0.894164
0.870944
0.833826
0.749842
0.489759
0.927636
0.97788
0.983003
0.985201
0.986521
0.987664
0.988959
0.990649
0.993078
0.996052
0.998606
0.999506
0.999813
0.999923
0.999465
0.998116
0.995848
0.992855
0.989434
0.985888
0.982483
0.97943
0.976874
0.974903
0.973548
0.972799
0.972605
0.972741
0.973236
0.97403
0.975059
0.976258
0.977569
0.978946
0.980344
0.98173
0.983076
0.984366
0.985582
0.986717
0.987767
0.988731
0.989607
0.990399
0.991109
0.991742
0.992304
0.992794
0.993223
0.993594
0.993912
0.994182
0.994407
0.994591
0.99474
0.994855
0.994942
0.995002
0.99504
0.995057
0.995055
0.995038
0.995008
0.994966
0.994914
0.994854
0.994787
0.994714
0.994638
0.994556
0.994472
0.994389
0.994303
0.994216
0.994128
0.994041
0.993952
0.993865
0.993778
0.993691
0.993606
0.993524
0.993441
0.993359
0.993278
0.993196
0.993113
0.993033
0.992948
0.992867
0.992782
0.992698
0.992613
0.99253
0.992444
0.992359
0.992271
0.992182
0.992094
0.992001
0.991908
0.991813
0.991709
0.991602
0.991489
0.991367
0.991232
0.991082
0.990914
0.990722
0.990501
0.990245
0.989944
0.989587
0.989161
0.988656
0.988052
0.987328
0.986463
0.985429
0.984195
0.982725
0.980982
0.978915
0.976471
0.973596
0.970219
0.966258
0.961625
0.956206
0.949862
0.942407
0.933589
0.923022
0.910069
0.893552
0.870911
0.834725
0.752889
0.49668
0.938858
0.979438
0.983781
0.985516
0.986665
0.987751
0.989062
0.990769
0.993227
0.996386
0.999053
0.999732
0.999914
0.999969
0.999231
0.997263
0.994102
0.990069
0.985574
0.981009
0.976699
0.972896
0.969769
0.967412
0.965854
0.965064
0.964867
0.965156
0.965906
0.96703
0.968436
0.970043
0.971773
0.973565
0.975367
0.977139
0.978851
0.980481
0.982015
0.983443
0.984763
0.985973
0.987076
0.988075
0.988975
0.989781
0.990501
0.99114
0.991703
0.992197
0.99263
0.993004
0.993327
0.993602
0.993834
0.994029
0.994189
0.994318
0.994421
0.994499
0.994555
0.994592
0.994614
0.994618
0.994612
0.994595
0.994567
0.994532
0.994491
0.994444
0.994391
0.994333
0.994273
0.99421
0.994145
0.994078
0.99401
0.993939
0.993868
0.993797
0.993723
0.993649
0.993576
0.993503
0.993428
0.993351
0.993274
0.993193
0.993113
0.993029
0.992944
0.992858
0.992767
0.992676
0.992582
0.992485
0.992382
0.992278
0.992169
0.992055
0.991936
0.991807
0.991673
0.991528
0.991368
0.991196
0.991007
0.990797
0.990562
0.990297
0.989994
0.989649
0.989251
0.988789
0.988257
0.987633
0.986905
0.986052
0.985053
0.983882
0.982513
0.980909
0.979037
0.976853
0.974307
0.971345
0.967906
0.963913
0.959281
0.953904
0.947639
0.940311
0.931669
0.921326
0.908652
0.89249
0.870317
0.834866
0.754639
0.501347
0.946982
0.980557
0.984226
0.985684
0.986684
0.987707
0.989044
0.990855
0.993289
0.996612
0.999414
0.999874
0.999966
0.999989
0.998882
0.996116
0.991843
0.986556
0.980803
0.975069
0.969745
0.965117
0.961381
0.958641
0.956915
0.95615
0.955995
0.956522
0.957621
0.959169
0.961048
0.963149
0.965376
0.967653
0.969918
0.972125
0.974242
0.976242
0.978117
0.97986
0.981465
0.982935
0.984274
0.985488
0.986583
0.987568
0.988451
0.989239
0.989939
0.990558
0.991104
0.991585
0.992006
0.992372
0.992689
0.992963
0.993193
0.99339
0.993555
0.99369
0.993803
0.993889
0.993958
0.99401
0.994044
0.994066
0.994075
0.994072
0.994062
0.994042
0.994017
0.993982
0.993945
0.9939
0.993854
0.993803
0.993747
0.99369
0.993631
0.993569
0.993504
0.993438
0.99337
0.993299
0.993226
0.993152
0.993074
0.992994
0.992911
0.992824
0.992734
0.992638
0.992541
0.992439
0.992334
0.992221
0.992104
0.991982
0.991851
0.991713
0.991566
0.991408
0.991238
0.991054
0.990855
0.990633
0.990393
0.990125
0.989827
0.989493
0.989116
0.98869
0.988204
0.987651
0.987017
0.986288
0.985449
0.984481
0.983366
0.982079
0.980591
0.978874
0.976892
0.974607
0.971969
0.968936
0.965446
0.961424
0.956792
0.951445
0.945248
0.938024
0.929524
0.919368
0.906933
0.891065
0.869287
0.834426
0.755388
0.504266
0.953005
0.981343
0.984456
0.985708
0.986566
0.987531
0.988893
0.990813
0.993346
0.996724
0.999689
0.999953
0.99999
0.999997
0.998407
0.994624
0.988999
0.982239
0.975048
0.96801
0.961567
0.956046
0.951672
0.948561
0.946725
0.946077
0.946116
0.946994
0.94856
0.950644
0.953097
0.955781
0.958576
0.961393
0.964161
0.966837
0.96938
0.971773
0.973999
0.976061
0.977956
0.979688
0.981264
0.982693
0.983984
0.985148
0.986191
0.987126
0.987961
0.988706
0.989365
0.98995
0.990466
0.99092
0.991318
0.991665
0.99197
0.992229
0.992455
0.992646
0.99281
0.992944
0.993057
0.993149
0.993223
0.993279
0.99332
0.993347
0.993364
0.993369
0.993366
0.993352
0.993333
0.993304
0.993271
0.993233
0.99319
0.993141
0.993088
0.993031
0.992973
0.992908
0.992841
0.992773
0.992699
0.992625
0.992543
0.992459
0.99237
0.992276
0.992177
0.992074
0.991963
0.99185
0.991729
0.991602
0.991467
0.991323
0.99117
0.991005
0.99083
0.990643
0.990437
0.990216
0.989975
0.98971
0.989417
0.989097
0.988738
0.988339
0.987894
0.987393
0.986827
0.986186
0.985462
0.984639
0.983702
0.982637
0.981417
0.980025
0.978434
0.976617
0.974542
0.972167
0.969459
0.966366
0.96283
0.958786
0.954157
0.948837
0.942696
0.935558
0.92718
0.917184
0.904952
0.889347
0.867904
0.833523
0.755368
0.505827
0.957527
0.98188
0.984526
0.985582
0.986315
0.987211
0.988598
0.990639
0.993371
0.996745
0.999879
0.999988
0.999997
0.999999
0.997787
0.992741
0.985506
0.977059
0.968268
0.9598
0.952144
0.945661
0.940617
0.937163
0.935309
0.934799
0.935185
0.936601
0.938823
0.941621
0.94479
0.948161
0.951601
0.955008
0.958313
0.961469
0.964443
0.967222
0.969795
0.972166
0.974339
0.976321
0.978124
0.979757
0.981232
0.982566
0.983763
0.984838
0.985799
0.986659
0.987428
0.988115
0.98872
0.989261
0.989736
0.990155
0.990524
0.990849
0.991129
0.991373
0.991583
0.991763
0.991917
0.992047
0.992153
0.992242
0.99231
0.992364
0.992404
0.99243
0.992444
0.992448
0.992445
0.99243
0.992407
0.992379
0.992342
0.992299
0.99225
0.992197
0.99214
0.992076
0.992008
0.991935
0.991858
0.991779
0.991691
0.991599
0.991501
0.991399
0.991291
0.991174
0.991053
0.990923
0.990785
0.99064
0.990484
0.990318
0.99014
0.98995
0.989746
0.989526
0.989288
0.98903
0.988745
0.988435
0.988096
0.987722
0.987309
0.986848
0.986338
0.985766
0.985128
0.984411
0.983606
0.982695
0.981671
0.980514
0.979204
0.977721
0.976042
0.974139
0.971982
0.969539
0.966767
0.963621
0.960053
0.955993
0.951368
0.94607
0.939982
0.932926
0.924655
0.914801
0.902751
0.887379
0.866237
0.832257
0.754751
0.506325
0.96094
0.982201
0.984441
0.985282
0.985925
0.986745
0.988147
0.990316
0.993262
0.996764
0.999983
0.999999
1
1
0.996999
0.990419
0.981316
0.970983
0.96045
0.950449
0.941489
0.933964
0.928209
0.924452
0.922711
0.922122
0.923123
0.925388
0.928565
0.932325
0.936401
0.940587
0.944744
0.948776
0.952621
0.956248
0.959629
0.962767
0.965655
0.968306
0.970729
0.972937
0.97494
0.976755
0.978394
0.979877
0.981213
0.982414
0.983492
0.984459
0.985325
0.9861
0.98679
0.987406
0.987953
0.988438
0.988868
0.989247
0.98958
0.989872
0.990126
0.990347
0.990536
0.9907
0.990837
0.990951
0.991045
0.991123
0.991182
0.991225
0.991257
0.991273
0.99128
0.991276
0.991259
0.991237
0.991206
0.991166
0.991117
0.991065
0.991005
0.990938
0.990865
0.99079
0.990706
0.990618
0.990523
0.99042
0.990311
0.990197
0.990073
0.989943
0.989807
0.989659
0.989504
0.989337
0.98916
0.98897
0.988768
0.988551
0.988317
0.988065
0.987792
0.987494
0.98717
0.986818
0.986432
0.986009
0.98554
0.985025
0.984452
0.983818
0.983111
0.982323
0.981442
0.980458
0.979357
0.978118
0.976726
0.975167
0.97341
0.971434
0.969209
0.966707
0.963884
0.9607
0.957107
0.953033
0.948414
0.943146
0.937106
0.930119
0.921953
0.912236
0.900358
0.885203
0.864336
0.830696
0.753664
0.50598
0.963481
0.982356
0.984235
0.984872
0.98539
0.986112
0.987522
0.989826
0.993016
0.996781
1
0.999999
0.999998
0.999999
0.996024
0.987619
0.976391
0.964004
0.951628
0.940024
0.929678
0.920995
0.914429
0.910414
0.908981
0.908911
0.910818
0.914205
0.918563
0.923446
0.928521
0.933563
0.938434
0.943056
0.947396
0.951429
0.955162
0.958596
0.961744
0.964621
0.967245
0.969632
0.971799
0.973762
0.975537
0.977144
0.978593
0.979896
0.981072
0.982131
0.983077
0.983929
0.984691
0.985373
0.985979
0.986522
0.987005
0.987433
0.987813
0.988146
0.988438
0.988691
0.988914
0.989107
0.989268
0.989409
0.989522
0.989618
0.989693
0.98975
0.989792
0.989817
0.989832
0.989833
0.989823
0.989802
0.989769
0.989732
0.989681
0.989625
0.989559
0.989489
0.989409
0.989324
0.989232
0.989133
0.989025
0.988911
0.988789
0.98866
0.988523
0.988374
0.988219
0.988054
0.987876
0.987688
0.987487
0.987275
0.987046
0.986799
0.986536
0.986249
0.985941
0.98561
0.985246
0.984851
0.984422
0.983947
0.983431
0.982861
0.982232
0.981538
0.980768
0.979916
0.978969
0.977916
0.976743
0.975435
0.973976
0.972346
0.970524
0.968488
0.966207
0.963655
0.960794
0.957579
0.953969
0.949895
0.945287
0.940048
0.934054
0.927145
0.91908
0.909496
0.89779
0.882848
0.862234
0.828903
0.752199
0.504963
0.965332
0.982376
0.983923
0.984344
0.9847
0.985306
0.986708
0.98915
0.992617
0.996719
1
1
0.999998
0.999997
0.994853
0.984305
0.970716
0.956154
0.941898
0.928671
0.916862
0.90684
0.899234
0.894988
0.893273
0.89441
0.898146
0.90346
0.909514
0.915756
0.921871
0.927708
0.93318
0.938265
0.942966
0.947292
0.951259
0.954895
0.958215
0.961243
0.964002
0.966509
0.968785
0.970848
0.972721
0.974415
0.975943
0.977328
0.978575
0.9797
0.980712
0.981622
0.98244
0.983174
0.983833
0.984418
0.984942
0.985409
0.985825
0.986191
0.986513
0.986796
0.987043
0.987257
0.987442
0.987599
0.987728
0.987835
0.987924
0.98799
0.988041
0.988072
0.988089
0.988092
0.988083
0.988061
0.988026
0.987984
0.98793
0.987867
0.987794
0.987713
0.987624
0.987526
0.987423
0.987312
0.98719
0.987061
0.986924
0.986776
0.986621
0.986455
0.98628
0.986092
0.985893
0.98568
0.985457
0.985216
0.984957
0.984683
0.984388
0.984071
0.983726
0.983357
0.982955
0.982521
0.982046
0.981527
0.980962
0.980341
0.979661
0.978911
0.978085
0.977175
0.976169
0.975055
0.97382
0.972452
0.970935
0.969248
0.96737
0.965286
0.962962
0.960372
0.957481
0.954249
0.950628
0.946557
0.941966
0.936763
0.930827
0.923996
0.916033
0.906586
0.895053
0.880325
0.859963
0.826915
0.750422
0.503401
0.9666
0.982276
0.983511
0.983654
0.983778
0.984311
0.98569
0.988269
0.992044
0.996561
0.999997
0.999997
0.999998
0.999996
0.993469
0.980443
0.964287
0.947518
0.931444
0.916676
0.903375
0.891749
0.882547
0.877883
0.87635
0.880208
0.887193
0.895193
0.903097
0.910515
0.917372
0.923681
0.929469
0.93477
0.939624
0.944061
0.948115
0.95182
0.955201
0.95828
0.961088
0.963648
0.965971
0.968081
0.969995
0.971737
0.973313
0.974738
0.976028
0.977193
0.978245
0.979194
0.980049
0.980818
0.981509
0.982127
0.982681
0.983174
0.983614
0.984005
0.984348
0.984649
0.984916
0.985145
0.98534
0.98551
0.98565
0.985764
0.985858
0.985928
0.98598
0.986014
0.98603
0.986031
0.986018
0.985993
0.985951
0.985899
0.985838
0.985764
0.985682
0.985587
0.985486
0.985375
0.985256
0.985129
0.984989
0.984843
0.984688
0.984521
0.984343
0.984157
0.983958
0.983748
0.983526
0.98329
0.983037
0.982769
0.982483
0.982177
0.981851
0.981499
0.981121
0.980716
0.980275
0.979801
0.979284
0.978722
0.978111
0.977445
0.976716
0.975916
0.97504
0.974078
0.973018
0.971851
0.970564
0.969146
0.967575
0.965844
0.963925
0.961799
0.959442
0.956826
0.953916
0.950674
0.947049
0.942994
0.938431
0.933272
0.927399
0.920657
0.91281
0.903505
0.892158
0.877651
0.857547
0.82476
0.748388
0.501379
0.96735
0.982076
0.983016
0.982833
0.982647
0.983126
0.984446
0.987156
0.99127
0.996304
1
1
0.999998
1
0.991859
0.975998
0.957131
0.938252
0.920595
0.904575
0.88995
0.876512
0.864506
0.85522
0.859021
0.871949
0.88362
0.892635
0.900913
0.908552
0.91561
0.921869
0.927576
0.932773
0.937523
0.941867
0.945837
0.949465
0.952783
0.95581
0.958579
0.961101
0.963406
0.965498
0.967405
0.969139
0.970718
0.97215
0.973449
0.974628
0.975689
0.976653
0.977522
0.978306
0.979012
0.979645
0.980212
0.980721
0.981172
0.981574
0.981929
0.98224
0.982512
0.982747
0.98295
0.98312
0.983264
0.98338
0.983472
0.983541
0.983591
0.983619
0.983629
0.983623
0.983603
0.983564
0.983514
0.983452
0.983376
0.983289
0.983192
0.983082