/*--------------------------------*- C++ -*----------------------------------*\
  =========                 |
  \\      /  F ield         | OpenFOAM: The Open Source CFD Toolbox
   \\    /   O peration     | Website:  https://openfoam.org
    \\  /    A nd           | Version:  13
     \\/     M anipulation  |
\*---------------------------------------------------------------------------*/
FoamFile
{
    format      ascii;
    class       volScalarField;
    location    "424.831886";
    object      T;
}
// * * * * * * * * * * * * * * * * * * * * * * * * * * * * * * * * * * * * * //

dimensions      [0 0 0 1 0 0 0];

internalField   nonuniform List<scalar> 
5712
(
301.568
301.594
301.634
301.673
301.719
301.761
301.824
301.86
301.784
301.826
301.702
301.742
301.636
301.672
301.582
301.61
301.763
301.82
301.833
301.913
301.893
301.965
301.962
302.055
301.507
301.4
301.532
301.43
301.571
301.467
301.612
301.511
301.72
301.644
301.793
301.696
301.55
301.626
301.918
302.048
301.999
302.098
302.042
302.157
302.136
302.226
301.803
301.933
301.881
301.982
301.705
301.83
301.277
301.194
301.326
301.239
301.344
301.24
301.406
301.307
301.441
301.304
301.548
301.413
301.637
301.501
301.748
301.606
301.822
301.851
301.933
301.952
301.997
302.027
302.094
302.124
301.776
301.77
301.655
301.667
302.03
302.038
302.12
302.111
302.182
302.205
302.265
302.276
301.879
301.857
301.975
301.93
301.619
301.46
301.588
301.419
301.497
301.341
301.486
301.316
301.725
301.565
301.674
301.504
301.824
301.662
301.745
301.574
301.093
300.93
301.065
300.908
301.153
300.996
301.101
300.949
301.251
301.123
301.162
301.033
301.676
301.872
301.495
301.361
301.211
301.828
301.62
301.402
301.262
301.108
301.908
301.723
301.545
301.377
301.209
300.781
300.689
300.72
300.642
300.856
300.751
300.773
300.688
300.991
300.872
300.866
300.765
301.757
301.638
301.533
301.388
301.324
301.181
301.164
301.028
300.963
300.837
301.852
301.752
301.646
301.499
301.456
301.298
301.269
301.107
301.04
300.88
301.781
301.623
301.9
301.756
301.988
301.91
302.1
302.038
301.691
301.519
301.577
301.396
302.001
301.858
302.072
301.934
302.192
302.131
302.262
302.207
301.793
301.619
301.862
301.692
301.456
301.268
301.176
300.966
301.363
301.164
301.108
300.9
301.54
301.358
301.237
301.032
301.619
301.433
301.315
301.118
300.628
300.561
300.479
300.624
300.57
300.492
300.676
300.6
300.512
300.662
300.603
300.518
300.774
300.683
300.585
300.72
300.648
300.553
301.495
301.34
301.183
301.227
301.089
300.951
301.033
300.908
300.785
300.9
300.787
300.671
300.77
300.68
300.569
301.613
301.433
301.251
301.299
301.117
300.945
301.094
300.928
300.772
300.933
300.791
300.651
300.78
300.671
300.543
302.123
302.184
302.181
302.261
302.019
302.092
302.083
302.175
302.1
302.19
302.117
302.199
302.144
302.222
302.172
302.244
302.266
302.209
302.308
302.239
302.257
302.305
302.327
302.404
302.251
302.333
302.307
302.386
302.364
302.435
302.336
302.412
302.284
302.368
302.269
302.341
302.309
302.391
302.309
302.379
302.338
302.424
302.377
302.448
302.407
302.461
302.471
302.507
302.25
302.297
302.33
302.38
302.141
302.181
302.229
302.27
302.397
302.457
302.324
302.383
302.405
302.45
302.478
302.512
302.31
302.346
302.387
302.412
302.465
302.521
302.534
302.577
302.451
302.505
302.502
302.523
302.391
302.456
302.436
302.468
302.509
302.55
302.559
302.571
302.571
302.597
302.609
302.612
302.256
302.191
302.349
302.286
302.267
302.198
302.36
302.295
302.283
302.222
302.379
302.321
302.177
302.044
302.259
302.329
302.401
302.001
302.131
302.2
302.269
302.35
302.081
302.213
302.309
302.371
302.414
302.093
301.965
302.188
302.064
302.108
301.984
302.207
302.087
302.14
302.021
302.243
302.13
301.942
301.836
302.08
301.97
302.155
302.044
302.218
302.106
302.296
302.188
302.039
301.966
302.174
302.099
302.267
302.183
302.324
302.227
302.362
302.251
302.289
302.239
302.372
302.337
302.167
302.12
302.262
302.233
302.439
302.385
302.366
302.299
302.438
302.415
302.499
302.481
302.337
302.319
302.402
302.391
302.5
302.456
302.555
302.516
302.472
302.396
302.472
302.374
302.406
302.318
302.421
302.314
302.527
302.463
302.517
302.429
302.576
302.515
302.559
302.481
301.798
301.635
301.485
301.857
301.671
301.52
301.825
301.659
301.505
301.887
301.7
301.541
301.869
301.705
301.546
301.938
301.74
301.569
301.701
301.542
301.378
301.831
301.665
301.495
301.902
301.729
301.554
301.956
301.78
301.608
301.993
301.782
301.594
301.847
301.667
301.476
301.974
301.789
301.594
302.045
301.849
301.646
302.069
301.864
301.66
302.044
301.82
301.613
302.386
302.294
302.101
301.78
302.352
302.255
302.058
301.737
302.402
302.307
302.112
301.787
302.381
302.278
302.077
301.754
302.424
302.322
302.133
301.816
302.435
302.323
302.123
301.799
302.431
302.308
302.095
301.765
302.457
302.321
302.098
301.766
302.475
302.355
302.156
301.832
302.468
302.34
302.154
301.861
302.439
302.33
302.149
301.849
302.429
302.312
302.14
301.864
302.506
302.374
302.159
301.823
302.503
302.364
302.167
301.865
302.537
302.394
302.171
301.835
302.534
302.386
302.182
301.879
302.377
302.294
302.117
301.813
302.327
302.254
302.101
301.834
302.383
302.297
302.121
301.819
302.329
302.254
302.102
301.837
302.39
302.298
302.127
301.833
302.341
302.258
302.105
301.843
302.393
302.294
302.13
301.852
302.353
302.262
302.109
301.854
302.39
302.283
302.125
301.868
302.25
302.187
302.049
301.85
302.166
302.11
301.968
301.779
302.261
302.193
302.053
301.854
302.177
302.115
301.971
301.781
302.279
302.203
302.059
301.859
302.195
302.123
301.976
301.785
302.306
302.217
302.069
301.868
302.22
302.136
301.983
301.79
302.34
302.237
302.082
301.877
302.248
302.151
301.992
301.796
302.405
302.274
302.102
301.887
302.32
302.193
302.019
301.814
302.373
302.255
302.091
301.881
302.284
302.172
302.005
301.805
302.434
302.292
302.111
301.893
302.354
302.214
302.032
301.824
302.462
302.311
302.124
301.903
302.385
302.234
302.045
301.835
301.33
300.982
300.699
300.478
300.315
301.306
300.964
300.683
300.463
300.302
301.333
300.984
300.7
300.478
300.316
301.311
300.967
300.685
300.465
300.303
301.339
300.987
300.701
300.48
300.317
301.329
300.982
300.697
300.476
300.313
301.321
300.973
300.689
300.468
300.306
301.328
300.978
300.692
300.47
300.308
301.344
300.989
300.703
300.481
300.318
301.324
300.964
300.678
300.458
300.296
301.339
300.983
300.697
300.475
300.313
301.317
300.957
300.673
300.453
300.292
301.345
300.99
300.703
300.48
300.317
301.323
300.961
300.676
300.455
300.293
301.353
300.995
300.706
300.483
300.319
301.326
300.962
300.675
300.454
300.292
301.326
300.974
300.69
300.47
300.308
301.297
300.942
300.661
300.443
300.283
301.327
300.974
300.69
300.469
300.307
301.298
300.943
300.661
300.443
300.283
301.328
300.971
300.687
300.466
300.305
301.299
300.941
300.66
300.441
300.281
301.32
300.96
300.676
300.456
300.295
301.294
300.937
300.655
300.436
300.277
301.303
300.944
300.661
300.442
300.282
300.446
300.403
300.47
300.427
300.515
300.467
300.575
300.516
300.64
300.568
300.752
300.672
300.698
300.618
300.803
300.728
300.854
300.786
300.069
299.687
299.386
299.167
299.025
300.072
299.688
299.385
299.164
299.021
300.081
299.692
299.389
299.169
299.027
300.083
299.693
299.388
299.166
299.022
300.104
299.704
299.396
299.173
299.03
300.105
299.704
299.395
299.17
299.026
300.135
299.722
299.407
299.18
299.035
300.134
299.72
299.404
299.176
299.03
300.173
299.744
299.421
299.19
299.042
300.166
299.739
299.416
299.184
299.036
300.255
299.797
299.456
299.214
299.062
300.244
299.789
299.449
299.207
299.055
300.214
299.77
299.438
299.201
299.051
300.203
299.762
299.43
299.194
299.044
300.294
299.825
299.475
299.228
299.073
300.287
299.818
299.469
299.222
299.067
300.333
299.852
299.494
299.242
299.084
300.331
299.849
299.491
299.238
299.079
302.324
302.253
302.151
302.232
302.027
302.046
302.059
302.086
302.045
302.08
301.945
301.983
301.875
301.917
301.947
301.984
301.969
301.996
301.964
301.985
302.197
302.174
301.709
301.56
301.534
301.51
301.641
301.908
301.763
301.87
301.621
301.436
301.776
301.761
301.608
301.715
301.667
301.632
302.012
301.951
301.822
301.834
301.898
301.911
301.846
301.796
301.629
301.645
301.74
301.757
302.136
302.115
302.071
302.045
301.975
302.005
301.839
301.705
301.853
302.36
302.433
302.455
302.429
302.357
302.304
302.371
302.39
302.358
302.27
301.803
301.844
301.844
301.801
301.715
301.648
301.685
301.683
301.641
301.557
301.622
301.66
301.659
301.618
301.535
301.597
301.633
301.631
301.589
301.507
301.732
301.772
301.772
301.729
301.644
302.079
302.173
302.216
302.209
302.155
301.94
302.041
302.086
302.081
302.022
302.001
302.077
302.109
302.089
302.011
301.784
301.88
301.92
301.909
301.843
301.59
301.685
301.724
301.715
301.65
301.885
301.942
301.957
301.925
301.843
301.882
301.951
301.977
301.953
301.874
301.722
301.787
301.81
301.786
301.71
301.817
301.869
301.879
301.844
301.761
301.773
301.829
301.843
301.812
301.731
301.731
301.78
301.789
301.754
301.672
302.174
302.255
302.288
302.273
302.211
302.072
302.139
302.161
302.133
302.05
301.928
301.982
301.993
301.958
301.873
301.937
301.987
301.995
301.957
301.871
302.008
302.064
302.078
302.043
301.958
302.017
302.069
302.078
302.04
301.953
301.946
301.992
301.996
301.955
301.867
301.895
301.94
301.944
301.903
301.816
301.723
301.767
301.77
301.731
301.647
301.738
301.779
301.78
301.739
301.655
301.839
301.888
301.894
301.856
301.772
301.855
301.901
301.906
301.866
301.78
302.294
302.371
302.396
302.374
302.306
302.239
302.303
302.321
302.289
302.201
302.209
302.28
302.305
302.281
302.207
302.159
302.217
302.231
302.195
302.107
302.085
302.139
302.15
302.112
302.024
302.125
302.189
302.21
302.18
302.096
301.939
301.986
301.991
301.951
301.863
301.799
301.842
301.843
301.801
301.716
301.956
302.005
302.012
301.973
301.886
302.401
302.331
302.397
302.319
302.507
302.426
302.51
302.438
302.392
302.385
302.319
302.337
302.505
302.498
302.432
302.453
302.284
302.165
302.219
302.105
302.283
302.177
302.209
302.105
302.21
302.276
302.242
302.286
302.194
302.127
302.232
302.158
302.27
302.191
302.339
302.263
302.387
302.313
302.128
302.051
302.172
302.086
302.043
301.956
302.051
301.943
301.996
301.893
302.062
301.938
301.995
301.884
302.088
301.927
302.038
301.891
301.961
301.813
301.864
301.717
302.345
302.31
302.312
302.274
302.481
302.464
302.447
302.432
302.178
302.096
302.211
302.133
302.26
302.229
302.195
302.175
302.397
302.389
302.335
302.337
302.125
302.051
302.056
301.994
302.034
301.859
301.909
301.728
302.062
301.877
301.942
301.752
301.981
301.814
301.866
301.689
301.909
301.746
301.809
301.636
302.063
302.027
301.947
301.888
302.075
302.045
301.936
301.878
302.093
302.078
301.915
301.867
302.355
302.495
302.217
302.064
301.86
302.5
302.368
302.231
302.072
301.838
302.482
302.331
302.156
301.963
301.761
301.953
301.903
301.706
301.622
301.989
301.939
301.718
301.634
302.042
301.999
301.732
301.647
302.492
302.455
302.353
302.313
302.205
302.167
302.024
301.981
301.706
301.617
302.475
302.432
302.31
302.24
302.121
302.042
301.905
301.817
301.62
301.517
302.259
302.149
302.223
302.11
302.447
302.408
302.412
302.375
302.014
301.872
302.054
301.917
302.188
302.062
302.134
302
302.373
302.328
302.321
302.271
301.981
301.823
301.924
301.758
301.767
301.6
301.463
301.27
301.819
301.655
301.527
301.343
301.724
301.552
301.407
301.208
301.681
301.498
301.369
301.174
301.862
301.805
301.63
301.598
301.899
301.836
301.637
301.606
301.95
301.867
301.642
301.602
302.384
302.264
302.239
302.127
302.102
302.003
301.923
301.828
301.619
301.574
302.353
302.222
302.138
302.018
301.948
301.848
301.754
301.682
301.547
301.508
302.672
302.674
302.6
302.627
302.6
302.6
302.526
302.553
302.719
302.744
302.648
302.675
302.718
302.742
302.64
302.668
302.652
302.717
302.667
302.714
302.736
302.672
302.562
302.485
302.489
302.416
302.566
302.481
302.598
302.519
302.587
302.506
302.751
302.736
302.683
302.672
302.754
302.742
302.681
302.675
302.758
302.749
302.704
302.702
302.627
302.631
302.551
302.569
302.68
302.674
302.648
302.648
302.595
302.589
302.562
302.559
302.7
302.701
302.731
302.723
302.599
302.612
302.542
302.566
302.513
302.519
302.454
302.471
302.653
302.668
302.597
302.627
302.729
302.725
302.721
302.704
302.758
302.746
302.74
302.718
302.683
302.688
302.692
302.681
302.629
302.644
302.654
302.649
302.782
302.774
302.763
302.748
302.781
302.772
302.763
302.746
302.775
302.767
302.759
302.744
302.691
302.608
302.742
302.766
302.746
302.608
302.688
302.738
302.761
302.737
302.604
302.685
302.732
302.747
302.722
302.731
302.655
302.699
302.618
302.735
302.663
302.702
302.625
302.74
302.675
302.707
302.636
302.602
302.566
302.683
302.641
302.725
302.676
302.74
302.684
302.707
302.642
302.603
302.574
302.682
302.649
302.723
302.68
302.73
302.673
302.695
302.629
302.673
302.65
302.641
302.625
302.59
302.575
302.554
302.547
302.684
302.65
302.712
302.671
302.597
302.586
302.551
302.537
302.508
302.505
302.459
302.452
302.646
302.615
302.604
302.568
302.691
302.635
302.655
302.583
302.715
302.653
302.677
302.603
302.659
302.606
302.627
302.553
302.621
302.563
302.596
302.521
302.56
302.47
302.502
302.399
302.575
302.478
302.51
302.401
302.59
302.481
302.521
302.395
302.494
302.371
302.564
302.439
302.597
302.473
302.598
302.47
302.526
302.376
302.504
302.364
302.573
302.428
302.592
302.443
302.572
302.418
302.502
302.334
302.644
302.469
302.219
301.859
302.586
302.414
302.167
301.81
302.647
302.472
302.223
301.86
302.591
302.421
302.175
301.818
302.648
302.475
302.237
301.883
302.612
302.444
302.206
301.854
302.549
302.389
302.151
301.803
302.5
302.35
302.118
301.78
302.629
302.46
302.229
301.882
302.598
302.429
302.218
301.907
302.64
302.466
302.244
301.912
302.606
302.433
302.224
301.923
302.603
302.441
302.207
301.856
302.583
302.419
302.207
301.896
302.571
302.418
302.188
301.847
302.561
302.405
302.196
301.89
302.664
302.487
302.247
301.899
302.64
302.462
302.242
301.93
302.66
302.483
302.246
301.901
302.634
302.456
302.238
301.929
302.65
302.473
302.245
301.91
302.625
302.447
302.233
301.928
302.631
302.455
302.239
301.923
302.613
302.436
302.227
301.932
302.605
302.429
302.225
301.936
302.581
302.403
302.194
301.958
302.503
302.326
302.115
301.892
302.58
302.402
302.194
301.959
302.502
302.325
302.115
301.891
302.577
302.4
302.192
301.956
302.499
302.322
302.111
301.889
302.573
302.395
302.19
301.956
302.495
302.317
302.108
301.887
302.566
302.389
302.187
301.955
302.487
302.31
302.102
301.882
302.534
302.363
302.165
301.937
302.463
302.291
302.087
301.868
302.552
302.377
302.177
301.947
302.479
302.303
302.097
301.877
302.512
302.346
302.151
301.925
302.441
302.274
302.074
301.858
302.488
302.329
302.138
301.914
302.414
302.254
302.059
301.846
301.375
301.01
300.715
300.488
300.323
301.349
300.99
300.699
300.473
300.309
301.375
301.009
300.715
300.488
300.323
301.349
300.99
300.699
300.474
300.31
301.376
301.009
300.715
300.488
300.323
301.361
301.001
300.709
300.483
300.319
301.343
300.987
300.697
300.473
300.31
301.337
300.983
300.695
300.472
300.309
301.372
301.006
300.713
300.487
300.323
301.349
300.978
300.687
300.463
300.301
301.372
301.002
300.709
300.483
300.319
301.347
300.975
300.683
300.46
300.297
301.365
301.002
300.71
300.485
300.321
301.34
300.971
300.682
300.459
300.296
301.36
300.999
300.709
300.484
300.32
301.332
300.966
300.677
300.455
300.293
301.374
301.002
300.707
300.481
300.316
301.346
300.971
300.678
300.454
300.291
301.372
301
300.706
300.479
300.315
301.345
300.97
300.677
300.453
300.291
301.368
300.995
300.701
300.476
300.312
301.341
300.966
300.675
300.451
300.288
301.355
300.981
300.689
300.464
300.301
301.332
300.958
300.668
300.445
300.283
301.336
300.963
300.673
300.45
300.288
301.22
301.167
301.212
301.157
301.193
301.138
301.164
301.11
301.117
301.071
300.997
300.94
301.052
301.001
300.948
300.885
300.901
300.837
300.598
300.031
299.617
299.331
299.154
300.609
300.036
299.618
299.329
299.15
300.591
300.027
299.614
299.329
299.153
300.6
300.03
299.614
299.326
299.148
300.577
300.017
299.608
299.324
299.149
300.587
300.022
299.609
299.322
299.145
300.555
300.003
299.599
299.318
299.144
300.566
300.009
299.6
299.316
299.14
300.523
299.983
299.586
299.308
299.137
300.54
299.992
299.59
299.309
299.134
300.447
299.934
299.552
299.284
299.118
300.458
299.941
299.555
299.284
299.116
300.486
299.96
299.57
299.297
299.128
300.503
299.97
299.575
299.298
299.126
300.409
299.907
299.533
299.271
299.107
300.414
299.91
299.534
299.269
299.104
300.371
299.879
299.514
299.256
299.096
300.372
299.879
299.512
299.254
299.092
302.421
302.354
302.434
302.505
302.673
302.6
302.673
302.591
302.601
302.517
302.602
302.529
301.041
301.061
301.11
301.188
301.295
301.426
301.039
301.058
301.104
301.178
301.276
301.393
300.999
300.94
301.021
300.965
301.076
301.025
301.163
301.124
301.282
301.253
301.422
301.39
301.57
301.713
301.844
301.959
302.051
302.116
301.521
301.649
301.769
301.874
301.958
302.015
301.114
301.142
301.137
301.098
301.025
301.134
301.163
301.158
301.118
301.045
301.184
301.214
301.209
301.169
301.095
301.265
301.296
301.291
301.25
301.174
301.375
301.407
301.403
301.361
301.283
301.509
301.544
301.541
301.498
301.417
301.111
301.14
301.134
301.095
301.023
301.131
301.16
301.154
301.115
301.042
301.179
301.208
301.203
301.164
301.09
301.254
301.285
301.28
301.24
301.165
301.355
301.387
301.383
301.342
301.264
301.476
301.51
301.507
301.465
301.385
301.071
301.099
301.093
301.055
300.983
301.01
301.037
301.032
300.994
300.924
301.093
301.122
301.117
301.078
301.005
301.035
301.063
301.058
301.02
300.949
301.149
301.178
301.173
301.134
301.06
301.097
301.126
301.121
301.082
301.01
301.239
301.27
301.265
301.225
301.149
301.199
301.229
301.225
301.185
301.111
301.361
301.393
301.389
301.348
301.27
301.332
301.364
301.36
301.319
301.242
301.505
301.54
301.537
301.494
301.414
301.473
301.507
301.504
301.462
301.382
301.659
301.696
301.694
301.651
301.567
301.807
301.848
301.848
301.805
301.719
301.943
301.988
301.992
301.95
301.861
302.065
302.116
302.123
302.083
301.993
302.164
302.219
302.229
302.191
302.101
302.233
302.291
302.303
302.265
302.174
301.608
301.645
301.643
301.6
301.518
301.74
301.781
301.78
301.738
301.653
301.865
301.909
301.911
301.869
301.782
301.976
302.023
302.027
301.986
301.898
302.064
302.114
302.12
302.08
301.99
302.123
302.175
302.183
302.142
302.051
301.051
301.089
301.158
301.256
301.383
301.535
301.048
301.086
301.151
301.244
301.36
301.495
301.009
300.95
301.051
300.995
301.125
301.076
301.233
301.197
301.373
301.348
301.538
301.512
301.7
301.857
301.99
302.09
302.143
302.15
301.638
301.774
301.891
301.979
302.029
302.041
301.123
301.152
301.147
301.107
301.034
301.163
301.192
301.187
301.147
301.073
301.233
301.263
301.257
301.217
301.141
301.333
301.364
301.359
301.317
301.24
301.464
301.496
301.491
301.448
301.368
301.62
301.655
301.65
301.606
301.522
301.121
301.149
301.144
301.105
301.032
301.159
301.188
301.183
301.143
301.069
301.227
301.256
301.251
301.211
301.135
301.322
301.352
301.347
301.306
301.228
301.441
301.474
301.469
301.426
301.346
301.58
301.614
301.61
301.566
301.483
301.08
301.109
301.103
301.065
300.992
301.02
301.048
301.042
301.004
300.934
301.123
301.152
301.146
301.107
301.034
301.066
301.094
301.089
301.05
300.978
301.199
301.229
301.223
301.183
301.108
301.149
301.178
301.173
301.133
301.06
301.31
301.341
301.336
301.294
301.217
301.273
301.304
301.298
301.258
301.181
301.454
301.486
301.481
301.438
301.358
301.428
301.461
301.456
301.413
301.333
301.623
301.658
301.653
301.608
301.524
301.597
301.631
301.627
301.582
301.499
301.79
301.827
301.823
301.778
301.69
301.952
301.992
301.99
301.944
301.853
302.091
302.135
302.135
302.089
301.996
302.197
302.246
302.249
302.205
302.111
302.256
302.309
302.317
302.275
302.182
302.266
302.323
302.334
302.295
302.203
301.727
301.763
301.76
301.715
301.629
301.867
301.907
301.905
301.859
301.771
301.989
302.032
302.032
301.986
301.896
302.081
302.128
302.13
302.085
301.994
302.136
302.185
302.19
302.147
302.055
302.149
302.2
302.207
302.166
302.074
302.255
302.219
301.873
301.7
301.703
301.657
301.811
302.369
302.323
302.283
302.187
302.103
302.162
302.004
301.997
301.918
302.36
302.274
302.11
302.085
302.179
302.142
302.028
302.005
301.861
301.849
301.996
301.985
302.304
302.239
302.322
302.218
302.183
302.272
302.043
301.897
302.083
302.417
302.486
302.504
302.475
302.399
302.349
302.414
302.431
302.397
302.307
301.969
302.009
302.006
301.959
301.868
301.79
301.827
301.823
301.777
301.689
301.793
301.831
301.827
301.781
301.693
301.746
301.782
301.778
301.732
301.645
301.904
301.943
301.939
301.892
301.802
302.516
302.577
302.589
302.553
302.475
302.465
302.522
302.53
302.491
302.408
302.401
302.457
302.466
302.424
302.328
302.317
302.368
302.372
302.33
302.24
302.209
302.256
302.257
302.211
302.116
302.272
302.323
302.327
302.283
302.188
302.105
302.149
302.149
302.102
302.009
302.098
302.143
302.143
302.098
302.005
302.016
302.058
302.057
302.011
301.919
302.506
302.568
302.58
302.545
302.465
302.39
302.444
302.452
302.409
302.312
302.215
302.262
302.262
302.216
302.12
302.188
302.233
302.233
302.186
302.091
302.287
302.336
302.339
302.293
302.197
302.248
302.296
302.297
302.251
302.155
302.129
302.174
302.173
302.126
302.032
302.105
302.148
302.146
302.099
302.005
301.957
301.997
301.995
301.948
301.858
301.943
301.983
301.98
301.933
301.842
302.096
302.139
302.138
302.091
301.997
302.084
302.127
302.125
302.078
301.984
302.459
302.525
302.54
302.509
302.431
302.363
302.423
302.435
302.397
302.305
302.456
302.515
302.528
302.491
302.405
302.332
302.386
302.394
302.351
302.256
302.293
302.343
302.347
302.302
302.206
302.389
302.445
302.454
302.412
302.316
302.145
302.189
302.188
302.141
302.047
301.993
302.033
302.03
301.983
301.891
302.186
302.231
302.231
302.184
302.089
302.026
302.118
302.163
302.161
302.115
302.011
302.428
302.421
302.535
302.539
302.413
302.398
302.527
302.515
302.306
302.178
302.305
302.191
302.292
302.295
302.212
302.436
302.428
302.543
302.549
302.417
302.401
302.533
302.517
302.306
302.174
302.304
302.189
302.29
302.295
302.208
302.439
302.429
302.547
302.554
302.416
302.397
302.533
302.514
302.305
302.145
302.302
302.162
302.285
302.289
302.185
302.41
302.399
302.517
302.526
302.383
302.359
302.502
302.478
302.269
302.097
302.265
302.114
302.247
302.249
302.139
302.35
302.339
302.455
302.465
302.322
302.293
302.439
302.413
302.209
302.046
302.205
302.059
302.187
302.184
302.083
302.241
302.23
302.341
302.35
302.213
302.187
302.324
302.299
302.11
301.965
302.107
301.975
302.09
302.089
301.999
302.701
302.7
302.629
302.631
302.695
302.687
302.623
302.612
302.746
302.775
302.743
302.77
302.739
302.729
302.758
302.711
302.708
302.637
302.641
302.699
302.689
302.628
302.616
302.758
302.779
302.752
302.771
302.743
302.73
302.756
302.716
302.71
302.641
302.647
302.698
302.684
302.629
302.612
302.755
302.757
302.747
302.749
302.733
302.718
302.735
302.686
302.678
302.611
302.619
302.663
302.645
302.596
302.576
302.717
302.701
302.707
302.694
302.688
302.67
302.68
302.62
302.611
302.547
302.555
302.593
302.57
302.53
302.508
302.644
302.619
302.633
302.613
302.612
302.591
302.602
302.498
302.489
302.428
302.437
302.472
302.45
302.412
302.39
302.522
302.509
302.511
302.503
302.493
302.475
302.492
301.564
301.588
301.633
301.672
301.719
301.76
301.823
301.86
301.784
301.826
301.701
301.742
301.635
301.671
301.577
301.603
301.762
301.82
301.833
301.912
301.893
301.964
301.962
302.055
301.503
301.397
301.528
301.427
301.57
301.467
301.611
301.511
301.72
301.644
301.793
301.696
301.55
301.626
301.918
302.047
301.999
302.098
302.042
302.157
302.136
302.225
301.802
301.933
301.881
301.982
301.704
301.83
301.274
301.192
301.323
301.235
301.343
301.24
301.405
301.307
301.441
301.303
301.548
301.413
301.637
301.501
301.748
301.606
301.822
301.85
301.933
301.952
301.997
302.027
302.094
302.123
301.776
301.77
301.655
301.667
302.03
302.038
302.119
302.111
302.182
302.205
302.265
302.275
301.879
301.857
301.975
301.929
301.619
301.46
301.588
301.418
301.497
301.341
301.486
301.315
301.725
301.565
301.674
301.504
301.824
301.662
301.745
301.574
301.091
300.928
301.063
300.907
301.153
300.996
301.101
300.949
301.25
301.123
301.162
301.033
301.676
301.872
301.495
301.361
301.211
301.828
301.62
301.402
301.262
301.108
301.908
301.723
301.545
301.377
301.209
300.778
300.687
300.719
300.641
300.856
300.752
300.773
300.688
300.991
300.872
300.866
300.765
301.757
301.638
301.533
301.387
301.324
301.181
301.164
301.028
300.963
300.837
301.852
301.752
301.645
301.499
301.455
301.297
301.269
301.107
301.04
300.88
301.781
301.623
301.9
301.756
301.988
301.91
302.1
302.038
301.691
301.519
301.577
301.396
302.001
301.858
302.072
301.934
302.192
302.131
302.262
302.207
301.793
301.619
301.862
301.692
301.456
301.267
301.176
300.965
301.363
301.163
301.108
300.9
301.54
301.358
301.237
301.031
301.619
301.433
301.315
301.118
300.626
300.559
300.477
300.623
300.569
300.491
300.676
300.6
300.512
300.662
300.603
300.518
300.774
300.683
300.585
300.72
300.648
300.553
301.495
301.34
301.183
301.227
301.088
300.951
301.033
300.908
300.785
300.9
300.787
300.671
300.77
300.68
300.569
301.613
301.433
301.251
301.299
301.117
300.944
301.094
300.928
300.772
300.933
300.791
300.651
300.78
300.671
300.543
302.123
302.184
302.181
302.261
302.019
302.092
302.083
302.175
302.098
302.188
302.114
302.196
302.144
302.222
302.172
302.244
302.266
302.209
302.308
302.239
302.257
302.304
302.327
302.404
302.251
302.333
302.307
302.386
302.364
302.435
302.336
302.412
302.282
302.366
302.266
302.338
302.309
302.391
302.309
302.379
302.338
302.424
302.377
302.447
302.407
302.461
302.471
302.507
302.25
302.297
302.33
302.38
302.141
302.181
302.228
302.27
302.397
302.457
302.324
302.383
302.404
302.45
302.478
302.512
302.309
302.346
302.387
302.412
302.465
302.521
302.534
302.577
302.451
302.505
302.502
302.523
302.391
302.456
302.436
302.468
302.509
302.55
302.559
302.571
302.571
302.597
302.609
302.612
302.255
302.19
302.348
302.286
302.267
302.198
302.36
302.295
302.283
302.222
302.379
302.321
302.177
302.044
302.259
302.329
302.4
302.001
302.131
302.2
302.269
302.349
302.081
302.213
302.308
302.371
302.414
302.092
301.965
302.188
302.063
302.108
301.984
302.207
302.087
302.14
302.021
302.243
302.13
301.942
301.836
302.08
301.97
302.155
302.044
302.218
302.106
302.296
302.188
302.039
301.966
302.173
302.099
302.266
302.183
302.324
302.227
302.362
302.251
302.289
302.239
302.372
302.337
302.167
302.12
302.261
302.233
302.439
302.385
302.366
302.298
302.438
302.415
302.498
302.481
302.337
302.319
302.402
302.391
302.5
302.456
302.555
302.516
302.472
302.396
302.472
302.374
302.406
302.318
302.421
302.314
302.527
302.463
302.517
302.429
302.575
302.515
302.559
302.48
301.797
301.634
301.484
301.856
301.671
301.519
301.825
301.659
301.505
301.887
301.7
301.541
301.869
301.705
301.546
301.938
301.74
301.569
301.701
301.542
301.378
301.831
301.665
301.495
301.902
301.728
301.554
301.956
301.78
301.608
301.992
301.782
301.594
301.846
301.667
301.476
301.974
301.789
301.594
302.045
301.849
301.646
302.069
301.864
301.659
302.043
301.82
301.613
302.385
302.294
302.1
301.779
302.35
302.254
302.057
301.736
302.402
302.306
302.112
301.787
302.381
302.278
302.078
301.754
302.424
302.322
302.133
301.817
302.435
302.323
302.123
301.799
302.431
302.308
302.095
301.765
302.457
302.321
302.098
301.766
302.475
302.355
302.156
301.832
302.468
302.34
302.154
301.861
302.439
302.33
302.149
301.849
302.429
302.312
302.14
301.864
302.506
302.374
302.159
301.823
302.503
302.364
302.167
301.865
302.537
302.394
302.171
301.835
302.534
302.386
302.182
301.879
302.377
302.294
302.117
301.812
302.326
302.254
302.101
301.834
302.383
302.297
302.121
301.819
302.329
302.254
302.101
301.837
302.39
302.298
302.127
301.833
302.341
302.258
302.105
301.843
302.393
302.294
302.13
301.852
302.353
302.262
302.109
301.854
302.389
302.283
302.125
301.868
302.251
302.188
302.049
301.85
302.167
302.11
301.969
301.779
302.261
302.193
302.053
301.854
302.177
302.115
301.971
301.781
302.279
302.203
302.059
301.859
302.195
302.123
301.976
301.785
302.306
302.217
302.069
301.868
302.22
302.136
301.983
301.79
302.34
302.236
302.082
301.877
302.248
302.151
301.992
301.796
302.405
302.274
302.102
301.887
302.32
302.193
302.019
301.814
302.373
302.255
302.091
301.881
302.284
302.172
302.005
301.805
302.434
302.292
302.111
301.893
302.354
302.214
302.032
301.824
302.462
302.311
302.124
301.903
302.385
302.234
302.045
301.835
301.329
300.982
300.699
300.478
300.315
301.305
300.963
300.682
300.463
300.301
301.333
300.984
300.7
300.478
300.316
301.311
300.967
300.685
300.465
300.303
301.339
300.987
300.701
300.48
300.317
301.329
300.982
300.697
300.476
300.313
301.321
300.973
300.689
300.468
300.306
301.328
300.978
300.692
300.47
300.308
301.344
300.989
300.703
300.481
300.318
301.324
300.964
300.678
300.458
300.296
301.339
300.983
300.697
300.475
300.313
301.317
300.957
300.673
300.453
300.292
301.345
300.99
300.703
300.48
300.317
301.323
300.961
300.676
300.455
300.293
301.353
300.995
300.706
300.483
300.319
301.326
300.962
300.675
300.454
300.292
301.327
300.974
300.69
300.47
300.308
301.298
300.943
300.661
300.443
300.283
301.327
300.974
300.69
300.469
300.307
301.298
300.943
300.661
300.443
300.283
301.328
300.971
300.687
300.466
300.305
301.299
300.941
300.66
300.441
300.281
301.32
300.96
300.676
300.456
300.295
301.294
300.937
300.655
300.436
300.277
301.303
300.944
300.661
300.442
300.282
300.444
300.403
300.47
300.427
300.515
300.467
300.575
300.516
300.64
300.568
300.752
300.672
300.698
300.618
300.803
300.728
300.854
300.786
300.069
299.686
299.386
299.167
299.025
300.072
299.688
299.385
299.164
299.021
300.081
299.692
299.389
299.169
299.027
300.083
299.693
299.388
299.166
299.022
300.104
299.704
299.396
299.173
299.03
300.105
299.704
299.395
299.17
299.025
300.135
299.722
299.407
299.18
299.035
300.134
299.72
299.404
299.176
299.03
300.173
299.744
299.421
299.19
299.042
300.166
299.739
299.416
299.184
299.036
300.255
299.797
299.456
299.214
299.062