/*--------------------------------*- C++ -*----------------------------------*\
  =========                 |
  \\      /  F ield         | OpenFOAM: The Open Source CFD Toolbox
   \\    /   O peration     | Website:  https://openfoam.org
    \\  /    A nd           | Version:  13
     \\/     M anipulation  |
\*---------------------------------------------------------------------------*/
FoamFile
{
    format      ascii;
    class       volScalarField;
    location    "529.831886";
    object      T;
}
// * * * * * * * * * * * * * * * * * * * * * * * * * * * * * * * * * * * * * //

dimensions      [0 0 0 1 0 0 0];

internalField   nonuniform List<scalar> 
5712
(
318.146
318.189
318.261
318.328
318.431
318.5
318.663
318.72
318.611
318.677
318.429
318.495
318.295
318.357
318.193
318.239
318.489
318.578
318.606
318.729
318.772
318.885
318.881
319.025
318.001
317.761
318.047
317.822
318.111
317.881
318.183
317.965
318.362
318.229
318.485
318.316
318.028
318.169
318.751
318.967
318.872
319.033
319.01
319.194
319.153
319.293
318.507
318.73
318.636
318.806
318.311
318.527
317.485
317.319
317.6
317.426
317.606
317.397
317.742
317.549
317.782
317.5
317.994
317.73
318.16
317.899
318.353
318.086
318.56
318.6
318.746
318.768
318.935
318.984
319.086
319.135
318.418
318.375
318.202
318.199
318.905
318.907
319.05
319.023
319.222
319.263
319.351
319.372
318.597
318.522
318.757
318.642
318.096
317.78
317.986
317.634
317.865
317.543
317.803
317.439
318.288
317.979
318.137
317.791
318.46
318.155
318.257
317.916
317.093
316.734
317.034
316.679
317.204
316.868
317.095
316.756
317.391
317.13
317.201
316.92
318.299
318.739
317.899
317.598
317.272
318.671
318.206
317.728
317.407
317.057
318.795
318.381
317.98
317.601
317.23
316.402
316.232
316.229
316.079
316.569
316.374
316.342
316.18
316.861
316.642
316.538
316.346
318.559
318.375
318.052
317.806
317.583
317.331
317.212
316.964
316.726
316.482
318.711
318.561
318.247
317.994
317.814
317.528
317.384
317.078
316.845
316.527
318.477
318.195
318.682
318.431
318.933
318.84
319.118
319.059
318.22
317.894
318.02
317.674
318.856
318.605
318.97
318.731
319.267
319.211
319.376
319.331
318.401
318.07
318.516
318.193
317.696
317.309
317.052
316.589
317.534
317.126
316.942
316.486
317.844
317.47
317.157
316.702
317.984
317.605
317.302
316.871
316.166
316.08
315.938
316.137
316.091
315.96
316.273
316.17
316.019
316.219
316.165
316.024
316.494
316.362
316.192
316.343
316.269
316.109
318.149
317.893
317.624
317.542
317.317
317.079
317.086
316.89
316.68
316.761
316.593
316.393
316.443
316.344
316.157
318.349
318.061
317.754
317.653
317.353
317.052
317.182
316.914
316.644
316.803
316.594
316.355
316.452
316.325
316.109
319.273
319.366
319.357
319.477
319.047
319.16
319.142
319.283
319.305
319.485
319.329
319.495
319.362
319.522
319.403
319.552
319.537
319.456
319.59
319.494
319.561
319.628
319.572
319.682
319.398
319.52
319.593
319.7
319.668
319.769
319.668
319.773
319.667
319.827
319.637
319.785
319.694
319.858
319.688
319.838
319.721
319.899
319.769
319.929
319.806
319.943
319.894
320.005
319.484
319.563
319.594
319.681
319.246
319.314
319.373
319.447
319.747
319.851
319.65
319.746
319.7
319.784
319.806
319.874
319.493
319.561
319.609
319.66
319.842
319.942
319.939
320.022
319.875
320.011
319.961
320.038
319.796
319.944
319.869
319.961
319.952
320.07
320.041
320.105
320.037
320.133
320.112
320.162
319.651
319.564
319.807
319.718
319.656
319.564
319.82
319.727
319.665
319.582
319.841
319.758
319.398
319.114
319.575
319.716
319.866
319.051
319.331
319.494
319.633
319.793
319.172
319.448
319.647
319.78
319.885
319.418
319.22
319.57
319.377
319.432
319.242
319.595
319.409
319.465
319.285
319.642
319.469
318.967
318.812
319.264
319.105
319.432
319.27
319.563
319.398
319.715
319.551
319.118
319.022
319.401
319.304
319.594
319.481
319.717
319.58
319.809
319.643
319.574
319.531
319.695
319.683
319.316
319.282
319.46
319.465
319.844
319.794
319.74
319.663
319.788
319.801
319.878
319.899
319.572
319.6
319.672
319.711
319.929
319.9
320.009
319.988
319.934
319.841
319.97
319.833
319.838
319.723
319.895
319.741
320.012
319.94
320.034
319.913
320.079
320.014
320.092
319.987
318.951
318.686
318.436
319.047
318.747
318.496
318.989
318.72
318.465
319.092
318.79
318.528
319.047
318.782
318.522
319.166
318.848
318.568
318.604
318.348
318.074
318.892
318.626
318.346
319.053
318.775
318.489
319.168
318.89
318.612
319.245
318.91
318.605
318.853
318.573
318.261
319.127
318.841
318.526
319.279
318.976
318.651
319.345
319.026
318.698
319.323
318.971
318.635
319.888
319.765
319.459
318.906
319.837
319.706
319.39
318.833
319.91
319.782
319.475
318.917
319.878
319.738
319.419
318.86
319.94
319.805
319.509
318.967
319.954
319.803
319.488
318.934
319.945
319.778
319.441
318.874
319.979
319.793
319.442
318.871
320.01
319.849
319.541
318.991
320
319.828
319.545
319.049
319.96
319.816
319.536
319.026
319.945
319.79
319.526
319.06
320.051
319.874
319.541
318.971
320.048
319.862
319.561
319.054
320.092
319.9
319.555
318.987
320.09
319.891
319.582
319.076
319.878
319.768
319.489
318.968
319.805
319.712
319.473
319.018
319.884
319.771
319.495
318.978
319.809
319.711
319.473
319.022
319.894
319.773
319.506
319.003
319.824
319.716
319.478
319.032
319.897
319.767
319.513
319.039
319.839
319.72
319.485
319.051
319.89
319.75
319.507
319.072
319.694
319.615
319.399
319.072
319.57
319.499
319.279
318.971
319.708
319.622
319.405
319.078
319.584
319.507
319.284
318.974
319.734
319.636
319.413
319.084
319.61
319.519
319.29
318.98
319.771
319.656
319.428
319.097
319.645
319.537
319.301
318.988
319.819
319.683
319.447
319.112
319.685
319.557
319.312
318.996
319.91
319.735
319.472
319.124
319.789
319.617
319.35
319.022
319.865
319.709
319.459
319.117
319.737
319.587
319.331
319.009
319.95
319.759
319.485
319.13
319.837
319.646
319.368
319.036
319.989
319.785
319.502
319.144
319.881
319.674
319.386
319.05
318.076
317.41
316.847
316.392
316.044
318.034
317.376
316.815
316.361
316.013
318.081
317.413
316.849
316.393
316.045
318.041
317.381
316.819
316.364
316.016
318.09
317.417
316.851
316.395
316.047
318.072
317.407
316.843
316.386
316.038
318.056
317.39
316.825
316.369
316.02
318.066
317.398
316.831
316.373
316.024
318.097
317.421
316.854
316.397
316.048
318.062
317.372
316.804
316.347
315.999
318.089
317.409
316.842
316.385
316.037
318.051
317.36
316.793
316.337
315.989
318.098
317.421
316.853
316.395
316.046
318.059
317.367
316.798
316.341
315.993
318.109
317.428
316.858
316.4
316.05
318.062
317.367
316.796
316.338
315.99
318.071
317.395
316.83
316.375
316.027
318.021
317.336
316.772
316.318
315.971
318.072
317.394
316.828
316.373
316.025
318.022
317.336
316.771
316.317
315.97
318.071
317.389
316.823
316.367
316.019
318.022
317.333
316.768
316.313
315.967
318.057
317.368
316.801
316.345
315.997
318.013
317.323
316.757
316.303
315.956
318.027
317.336
316.769
316.314
315.967
315.498
315.397
315.546
315.442
315.633
315.518
315.746
315.61
315.86
315.701
316.044
315.862
315.951
315.772
316.134
315.96
316.226
316.069
314.425
313.263
312.296
311.551
311.047
314.441
313.271
312.294
311.544
311.032
314.447
313.274
312.303
311.556
311.051
314.461
313.28
312.301
311.547
311.035
314.491
313.299
312.319
311.568
311.061
314.503
313.303
312.316
311.558
311.045
314.55
313.334
312.342
311.585
311.075
314.557
313.335
312.337
311.573
311.057
314.62
313.378
312.372
311.607
311.094
314.617
313.373
312.363
311.592
311.074
314.771
313.487
312.452
311.669
311.148
314.755
313.471
312.435
311.649
311.124
314.695
313.431
312.41
311.636
311.119
314.682
313.418
312.395
311.617
311.095
314.846
313.544
312.496
311.704
311.179
314.835
313.533
312.482
311.687
311.158
314.922
313.603
312.541
311.741
311.211
314.922
313.598
312.533
311.728
311.193
319.558
319.398
319.246
319.429
319.158
319.186
319.197
319.235
319.147
319.198
318.931
318.99
318.812
318.878
318.973
319.029
319.034
319.073
319.043
319.073
319.407
319.434
318.863
318.646
318.587
318.562
318.758
318.928
318.69
318.947
318.479
318.171
318.871
318.797
318.555
318.799
318.699
318.671
319.12
319.112
318.964
319.004
319.074
319.118
319.049
318.972
318.703
318.747
318.86
318.905
319.32
319.365
319.26
319.292
319.206
319.202
319.033
318.844
319.041
319.708
319.859
319.92
319.905
319.813
319.661
319.788
319.84
319.812
319.693
319.018
319.089
319.095
319.031
318.894
318.795
318.861
318.86
318.793
318.655
318.737
318.805
318.808
318.742
318.606
318.71
318.775
318.775
318.707
318.57
318.911
318.98
318.985
318.92
318.783
319.256
319.451
319.552
319.567
319.5
319.038
319.249
319.355
319.371
319.294
319.183
319.332
319.408
319.397
319.289
318.8
319.002
319.1
319.106
319.012
318.483
318.689
318.787
318.794
318.701
319.06
319.167
319.208
319.17
319.047
319.015
319.149
319.213
319.193
319.08
318.765
318.894
318.954
318.931
318.817
318.975
319.07
319.099
319.053
318.926
318.885
318.99
319.029
318.991
318.869
318.843
318.935
318.961
318.914
318.787
319.421
319.588
319.669
319.671
319.591
319.322
319.448
319.504
319.478
319.362
319.144
319.242
319.274
319.23
319.103
319.176
319.266
319.29
319.24
319.11
319.26
319.363
319.399
319.358
319.233
319.294
319.387
319.413
319.365
319.235
319.213
319.294
319.309
319.251
319.117
319.135
319.215
319.229
319.171
319.037
318.864
318.942
318.955
318.898
318.765
318.904
318.977
318.985
318.924
318.789
319.028
319.115
319.136
319.084
318.954
319.069
319.15
319.166
319.109
318.976
319.613
319.768
319.835
319.825
319.738
319.578
319.699
319.747
319.716
319.595
319.504
319.643
319.708
319.694
319.594
319.483
319.589
319.627
319.587
319.461
319.387
319.485
319.516
319.47
319.342
319.408
319.529
319.581
319.553
319.435
319.199
319.281
319.297
319.241
319.108
319.002
319.076
319.084
319.023
318.887
319.211
319.299
319.32
319.268
319.136
319.497
319.4
319.49
319.381
319.713
319.6
319.717
319.617
319.481
319.469
319.377
319.399
319.709
319.702
319.605
319.635
319.268
319.042
319.18
318.963
319.267
319.063
319.164
318.964
319.16
319.252
319.21
319.271
319.094
319.001
319.25
319.141
319.299
319.181
319.47
319.356
319.537
319.426
319.038
318.922
319.106
318.974
318.874
318.736
318.834
318.651
318.765
318.591
318.85
318.633
318.761
318.569
318.889
318.597
318.826
318.566
318.709
318.443
318.55
318.28
319.397
319.337
319.348
319.28
319.68
319.658
319.628
319.609
319.078
318.913
319.123
318.973
319.269
319.211
319.168
319.125
319.551
319.544
319.458
319.466
318.998
318.841
318.889
318.748
318.796
318.474
318.532
318.173
318.828
318.483
318.584
318.206
318.718
318.41
318.462
318.113
318.603
318.299
318.366
318.024
318.826
318.727
318.623
318.467
318.843
318.762
318.595
318.444
318.874
318.831
318.544
318.419
319.41
319.702
319.124
318.816
318.422
319.712
319.435
319.15
318.826
318.358
319.685
319.371
319.01
318.615
318.206
318.561
318.482
318.045
317.89
318.639
318.56
318.075
317.92
318.755
318.689
318.111
317.955
319.705
319.659
319.409
319.356
319.101
319.047
318.728
318.66
318.061
317.895
319.682
319.633
319.337
319.229
318.945
318.81
318.491
318.332
317.882
317.682
319.252
319.068
319.199
319.011
319.644
319.618
319.598
319.582
318.758
318.493
318.821
318.57
319.153
318.938
319.068
318.838
319.544
319.515
319.467
319.43
318.711
318.415
318.618
318.303
318.231
317.894
317.565
317.144
318.323
317.996
317.689
317.295
318.159
317.81
317.458
317.025
318.09
317.718
317.398
316.972
318.445
318.372
317.978
317.96
318.521
318.44
317.996
317.985
318.633
318.518
318.014
317.996
319.564
319.399
319.255
319.1
318.958
318.823
318.587
318.459
317.976
317.963
319.536
319.357
319.08
318.915
318.677
318.552
318.272
318.207
317.851
317.865
320.067
320.072
319.965
320.007
319.909
319.913
319.802
319.845
320.177
320.253
320.08
320.159
320.174
320.245
320.069
320.146
320.086
320.175
320.1
320.166
320.228
320.143
319.912
319.801
319.752
319.643
319.963
319.836
320.003
319.889
320.023
319.907
320.295
320.317
320.204
320.23
320.295
320.324
320.199
320.236
320.291
320.333
320.219
320.271
320.111
320.174
320.006
320.089
320.098
320.101
320.05
320.066
319.917
319.918
319.867
319.875
320.171
320.193
320.215
320.221
319.981
320.015
319.898
319.952
319.794
319.817
319.707
319.747
320.105
320.149
320.026
320.092
320.255
320.304
320.262
320.283
320.295
320.331
320.285
320.299
320.192
320.256
320.224
320.254
320.118
320.197
320.173
320.213
320.336
320.321
320.351
320.326
320.329
320.313
320.35
320.323
320.313
320.3
320.343
320.319
320.115
319.938
320.23
320.303
320.329
319.937
320.107
320.22
320.292
320.312
319.94
320.115
320.231
320.291
320.3
320.258
320.148
320.251
320.133
320.26
320.156
320.257
320.143
320.259
320.167
320.265
320.16
319.935
319.89
320.105
320.05
320.206
320.138
320.266
320.187
320.269
320.174
319.948
319.926
320.12
320.091
320.225
320.176
320.272
320.2
320.263
320.168
320.121
320.12
320.08
320.097
319.942
319.956
319.893
319.929
320.189
320.168
320.223
320.189
320.018
320.047
319.954
319.98
319.826
319.875
319.756
319.8
320.135
320.124
320.078
320.061
320.236
320.177
320.221
320.125
320.263
320.192
320.246
320.145
320.195
320.14
320.185
320.087
320.142
320.083
320.143
320.043
320.012
319.884
319.96
319.811
320.03
319.893
319.973
319.815
320.046
319.894
319.993
319.809
319.796
319.628
319.946
319.775
320.029
319.857
320.067
319.89
320.006
319.789
319.846
319.653
319.998
319.797
320.062
319.852
320.06
319.841
319.981
319.736
320.228
319.994
319.615
319.011
320.149
319.917
319.534
318.931
320.232
320
319.622
319.014
320.157
319.927
319.548
318.946
320.236
320.005
319.645
319.056
320.188
319.962
319.597
319.008
320.102
319.885
319.515
318.924
320.036
319.832
319.469
318.889
320.213
319.988
319.637
319.058
320.173
319.947
319.629
319.112
320.226
319.996
319.661
319.11
320.182
319.951
319.639
319.139
320.18
319.963
319.604
319.016
320.154
319.935
319.615
319.095
320.137
319.931
319.577
319.003
320.126
319.916
319.6
319.09
320.254
320.02
319.66
319.084
320.219
319.985
319.659
319.146
320.249
320.015
319.661
319.089
320.211
319.977
319.654
319.146
320.236
320.003
319.662
319.106
320.2
319.967
319.648
319.147
320.212
319.979
319.657
319.134
320.186
319.952
319.641
319.156
320.178
319.944
319.64
319.164
320.135
319.902
319.594
319.219
320.025
319.793
319.48
319.129
320.135
319.902
319.595
319.221
320.025
319.792
319.479
319.128
320.133
319.899
319.591
319.217
320.022
319.788
319.474
319.125
320.129
319.894
319.59
319.218
320.019
319.783
319.47
319.122
320.123
319.887
319.588
319.218
320.012
319.774
319.463
319.116
320.085
319.854
319.558
319.193
319.985
319.75
319.444
319.097
320.107
319.872
319.574
319.206
320.003
319.765
319.456
319.109
320.057
319.832
319.538
319.174
319.956
319.727
319.425
319.082
320.025
319.809
319.52
319.159
319.92
319.701
319.405
319.066
318.138
317.448
316.871
316.408
316.056
318.093
317.413
316.838
316.376
316.025
318.137
317.448
316.87
316.407
316.056
318.093
317.413
316.839
316.377
316.027
318.14
317.448
316.87
316.408
316.057
318.115
317.434
316.859
316.398
316.047
318.086
317.409
316.837
316.376
316.026
318.078
317.405
316.835
316.376
316.027
318.135
317.444
316.868
316.406
316.056
318.097
317.393
316.816
316.356
316.006
318.134
317.436
316.859
316.397
316.046
318.092
317.385
316.808
316.347
315.997
318.124
317.437
316.863
316.402
316.052
318.082
317.381
316.806
316.347
315.997
318.118
317.434
316.862
316.402
316.052
318.07
317.371
316.799
316.34
315.991
318.136
317.434
316.855
316.391
316.04
318.088
317.376
316.796
316.334
315.984
318.133
317.431
316.851
316.388
316.037
318.086
317.374
316.795
316.333
315.983
318.126
317.422
316.843
316.381
316.03
318.08
317.368
316.789
316.328
315.978
318.106
317.397
316.819
316.357
316.007
318.065
317.354
316.776
316.315
315.966
318.072
317.363
316.786
316.325
315.976
316.966
316.848
316.949
316.829
316.911
316.788
316.85
316.73
316.753
316.649
316.503
316.368
316.615
316.498
316.405
316.257
316.316
316.165
315.484
314.009
312.843
311.978
311.414
315.517
314.026
312.846
311.974
311.401
315.469
313.999
312.836
311.973
311.41
315.497
314.011
312.837
311.965
311.394
315.438
313.977
312.821
311.961
311.4
315.467
313.991
312.823
311.954
311.386
315.39
313.945
312.798
311.944
311.385
315.423
313.961
312.802
311.938
311.372
315.322
313.899
312.765
311.918
311.363
315.366
313.924
312.776
311.917
311.354
315.157
313.785
312.682
311.853
311.308
315.186
313.803
312.689
311.851
311.299
315.241
313.845
312.726
311.888
311.337
315.284
313.871
312.738
311.888
311.33
315.077
313.725
312.636
311.816
311.277
315.093
313.733
312.637
311.811
311.266
314.999
313.663
312.588
311.778
311.244
315.006
313.664
312.584
311.769
311.229
319.701
319.55
319.67
319.829
320.064
319.966
320.065
319.954
319.907
319.792
319.908
319.809
317.853
317.884
317.961
318.083
318.248
318.447
317.843
317.872
317.946
318.06
318.211
318.389
317.778
317.666
317.813
317.706
317.899
317.803
318.037
317.962
318.222
318.166
318.438
318.377
318.662
318.868
319.047
319.197
319.311
319.393
318.58
318.766
318.935
319.078
319.19
319.267
317.989
318.043
318.034
317.961
317.824
318.021
318.075
318.066
317.993
317.856
318.099
318.153
318.145
318.072
317.935
318.222
318.278
318.271
318.198
318.061
318.39
318.448
318.442
318.37
318.232
318.592
318.653
318.65
318.58
318.442
317.979
318.033
318.024
317.951
317.815
318.009
318.063
318.054
317.982
317.845
318.083
318.138
318.13
318.058
317.921
318.199
318.256
318.248
318.177
318.04
318.353
318.411
318.405
318.334
318.197
318.534
318.595
318.592
318.522
318.384
317.913
317.967
317.957
317.884
317.748
317.801
317.854
317.845
317.772
317.637
317.949
318.002
317.993
317.92
317.784
317.841
317.895
317.886
317.813
317.678
318.036
318.09
318.082
318.009
317.873
317.94
317.994
317.985
317.913
317.777
318.176
318.232
318.224
318.152
318.015
318.1
318.156
318.149
318.077
317.94
318.364
318.422
318.416
318.344
318.207
318.307
318.365
318.36
318.289
318.152
318.583
318.644
318.641
318.571
318.433
318.522
318.583
318.58
318.511
318.374
318.812
318.877
318.877
318.81
318.672
319.023
319.095
319.1
319.036
318.899
319.21
319.29
319.303
319.244
319.109
319.371
319.461
319.483
319.431
319.3
319.497
319.597
319.628
319.583
319.454
319.587
319.693
319.729
319.687
319.559
318.728
318.794
318.794
318.726
318.589
318.92
318.99
318.995
318.93
318.794
319.095
319.172
319.182
319.122
318.986
319.245
319.329
319.346
319.29
319.156
319.364
319.454
319.476
319.424
319.292
319.445
319.538
319.563
319.513
319.382
317.869
317.931
318.039
318.192
318.389
318.621
317.858
317.918
318.022
318.167
318.348
318.553
317.794
317.683
317.861
317.757
317.979
317.888
318.151
318.082
318.37
318.321
318.623
318.575
318.866
319.092
319.274
319.398
319.452
319.444
318.766
318.963
319.126
319.241
319.301
319.307
318.005
318.059
318.049
317.976
317.839
318.067
318.121
318.112
318.039
317.902
318.176
318.231
318.222
318.148
318.011
318.331
318.387
318.379
318.305
318.167
318.53
318.588
318.58
318.507
318.368
318.766
318.825
318.819
318.747
318.607
317.995
318.048
318.039
317.966
317.83
318.055
318.109
318.1
318.027
317.89
318.16
318.215
318.206
318.133
317.995
318.307
318.363
318.354
318.281
318.143
318.489
318.547
318.54
318.467
318.328
318.697
318.757
318.752
318.68
318.541
317.929
317.983
317.973
317.9
317.764
317.818
317.871
317.861
317.789
317.653
317.997
318.051
318.041
317.968
317.831
317.892
317.945
317.936
317.863
317.727
318.117
318.171
318.162
318.089
317.951
318.025
318.079
318.069
317.997
317.86
318.29
318.345
318.337
318.263
318.125
318.22
318.276
318.267
318.194
318.057
318.511
318.568
318.561
318.488
318.348
318.462
318.519
318.512
318.439
318.3
318.768
318.827
318.821
318.749
318.609
318.72
318.779
318.773
318.701
318.561
319.015
319.078
319.075
319.004
318.863
319.246
319.314
319.315
319.247
319.106
319.435
319.51
319.517
319.453
319.314
319.569
319.653
319.67
319.612
319.477
319.635
319.73
319.757
319.707
319.575
319.637
319.741
319.775
319.731
319.602
318.914
318.977
318.974
318.904
318.764
319.116
319.183
319.185
319.117
318.977
319.285
319.358
319.365
319.3
319.162
319.406
319.487
319.5
319.44
319.304
319.473
319.56
319.579
319.524
319.39
319.484
319.576
319.6
319.548
319.416
319.495
319.503
319.12
318.867
318.86
318.798
319.027
319.649
319.58
319.597
319.41
319.398
319.446
319.269
319.244
319.144
319.657
319.614
319.422
319.398
319.513
319.476
319.331
319.299
319.081
319.074
319.27
319.266
319.578
319.554
319.645
319.558
319.526
319.615
319.351
319.148
319.4
319.792
319.935
319.991
319.971
319.873
319.727
319.851
319.9
319.868
319.747
319.273
319.34
319.34
319.271
319.13
319.015
319.078
319.074
319.003
318.862
319.009
319.073
319.07
318.999
318.859
318.945
319.007
319.002
318.931
318.79
319.177
319.243
319.241
319.171
319.03
319.912
320.041
320.089
320.061
319.962
319.835
319.958
320
319.966
319.859
319.794
319.9
319.934
319.89
319.761
319.639
319.749
319.781
319.738
319.616
319.567
319.65
319.664
319.605
319.468
319.627
319.721
319.745
319.693
319.56
319.431
319.508
319.517
319.454
319.316
319.409
319.488
319.5
319.44
319.303
319.303
319.377
319.384
319.32
319.182
319.916
320.043
320.089
320.06
319.958
319.802
319.902
319.931
319.883
319.751
319.588
319.669
319.681
319.62
319.482
319.562
319.639
319.648
319.585
319.447
319.685
319.771
319.788
319.73
319.594
319.644
319.725
319.739
319.679
319.541
319.492
319.566
319.573
319.508
319.369
319.457
319.529
319.534
319.467
319.327
319.235
319.304
319.307
319.239
319.1
319.226
319.293
319.293
319.224
319.084
319.43
319.503
319.51
319.445
319.306
319.423
319.495
319.5
319.433
319.293
319.857
319.991
320.042
320.018
319.917
319.761
319.873
319.913
319.873
319.747
319.871
319.987
320.029
319.995
319.881
319.741
319.838
319.864
319.814
319.682
319.7
319.787
319.805
319.749
319.613
319.805
319.906
319.938
319.891
319.761
319.511
319.586
319.593
319.528
319.388
319.301
319.369
319.37
319.302
319.161
319.563
319.64
319.649
319.585
319.447
319.326
319.46
319.517
319.501
319.416
319.246
319.53
319.519
319.75
319.755
319.508
319.487
319.742
319.728
319.292
319.042
319.29
319.066
319.266
319.277
319.106
319.538
319.526
319.76
319.767
319.513
319.491
319.749
319.732
319.281
319.019
319.279
319.048
319.256
319.273
319.091
319.537
319.523
319.763
319.772
319.508
319.485
319.749
319.73
319.271
318.953
319.268
318.991
319.244
319.262
319.042
319.49
319.476
319.72
319.73
319.459
319.431
319.705
319.683
319.207
318.871
319.207
318.911
319.185
319.205
318.972
319.404
319.39
319.633
319.643
319.373
319.34
319.617
319.594
319.119
318.804
319.12
318.836
319.102
319.115
318.895
319.248
319.235
319.472
319.481
319.221
319.193
319.457
319.436
318.98
318.691
318.984
318.721
318.968
318.983
318.78
320.103
320.103
319.946
319.948
320.098
320.093
319.941
319.932
320.213
320.295
320.207
320.282
320.204
320.189
320.256
320.115
320.113
319.957
319.961
320.105
320.095
319.949
319.939
320.23
320.297
320.221
320.28
320.211
320.19
320.252
320.121
320.116
319.962
319.967
320.103
320.09
319.949
319.935
320.223
320.263
320.211
320.248
320.195
320.172
320.221
320.078
320.071
319.919
319.926
320.055
320.037
319.905
319.889
320.169
320.183
320.154
320.169
320.132
320.106
320.144
319.985
319.977
319.829
319.837
319.958
319.934
319.814
319.796
320.065
320.066
320.05
320.055
320.025
319.995
320.034
319.816
319.808
319.664
319.672
319.788
319.767
319.649
319.631
319.894
319.912
319.88
319.9
319.859
319.833
319.878
318.138
318.179
318.26
318.327
318.43
318.499
318.662
318.719
318.61
318.676
318.428
318.494
318.293
318.355
318.183
318.228
318.488
318.577
318.605
318.729
318.771
318.885
318.88
319.025
317.995
317.756
318.039
317.816
318.109
317.879
318.182
317.964
318.361
318.228
318.485
318.316
318.027
318.168
318.751
318.966
318.872
319.033
319.01
319.193
319.153
319.292
318.507
318.73
318.636
318.806
318.311
318.527
317.481
317.315
317.594
317.421
317.605
317.397
317.741
317.548
317.781
317.5
317.993
317.73
318.16
317.899
318.352
318.086
318.56
318.6
318.746
318.767
318.935
318.984
319.086
319.135
318.418
318.375
318.202
318.198
318.905
318.907
319.049
319.023
319.222
319.262
319.351
319.372
318.597
318.522
318.756
318.642
318.095
317.779
317.985
317.634
317.864
317.543
317.802
317.438
318.288
317.979
318.137
317.791
318.46
318.154
318.257
317.916
317.088
316.729
317.03
316.675
317.204
316.868
317.095
316.755
317.391
317.13
317.2
316.92
318.299
318.739
317.898
317.598
317.271
318.67
318.205
317.727
317.407
317.057
318.795
318.38
317.98
317.601
317.229
316.397
316.227
316.226
316.076
316.569
316.374
316.342
316.18
316.861
316.642
316.538
316.345
318.559
318.375
318.052
317.806
317.583
317.331
317.212
316.964
316.726
316.481
318.711
318.561
318.247
317.993
317.813
317.527
317.384
317.078
316.845
316.527
318.477
318.195
318.681
318.431
318.933
318.84
319.118
319.059
318.22
317.894
318.02
317.674
318.856
318.605
318.97
318.731
319.267
319.211
319.376
319.331
318.401
318.069
318.516
318.192
317.696
317.308
317.052
316.589
317.534
317.126
316.941
316.486
317.844
317.469
317.157
316.702
317.984
317.605
317.301
316.871
316.162
316.077
315.934
316.134
316.089
315.958
316.273
316.17
316.019
316.218
316.165
316.023
316.494
316.361
316.192
316.343
316.268
316.109
318.149
317.893
317.623
317.542
317.317
317.079
317.086
316.89
316.68
316.761
316.593
316.393
316.443
316.343
316.157
318.349
318.06
317.754
317.653
317.353
317.052
317.181
316.914
316.644
316.802
316.594
316.354
316.452
316.325
316.109
319.273
319.365
319.357
319.477
319.046
319.16
319.142
319.283
319.302
319.481
319.324
319.49
319.362
319.522
319.403
319.552
319.537
319.456
319.59
319.494
319.561
319.628
319.572
319.682
319.397
319.519
319.593
319.7
319.668
319.768
319.668
319.773
319.664
319.825
319.632
319.782
319.694
319.858
319.688
319.838
319.721
319.899
319.769
319.929
319.805
319.943
319.894
320.005
319.484
319.563
319.594
319.681
319.246
319.314
319.373
319.446
319.747
319.851
319.65
319.746
319.7
319.784
319.806
319.874
319.493
319.56
319.609
319.66
319.841
319.942
319.938
320.022
319.875
320.01
319.961
320.038
319.796
319.944
319.869
319.961
319.952
320.07
320.041
320.104
320.037
320.133
320.112
320.162
319.65
319.563
319.806
319.717
319.656
319.564
319.819
319.727
319.665
319.582
319.841
319.758
319.397
319.114
319.575
319.716
319.866
319.051
319.331
319.494
319.633
319.793
319.172
319.448
319.646
319.78
319.885
319.417
319.219
319.57
319.377
319.432
319.242
319.595
319.409
319.465
319.285
319.642
319.469
318.967
318.812
319.264
319.105
319.432
319.269
319.563
319.397
319.714
319.55
319.118
319.022
319.401
319.304
319.593
319.481
319.717
319.58
319.809
319.643
319.573
319.531
319.694
319.683
319.316
319.282
319.46
319.465
319.844
319.794
319.739
319.663
319.788
319.801
319.877
319.899
319.572
319.6
319.672
319.711
319.929
319.9
320.009
319.988
319.933
319.841
319.969
319.832
319.838
319.723
319.895
319.741
320.012
319.94
320.034
319.913
320.078
320.014
320.092
319.987
318.95
318.684
318.435
319.047
318.746
318.496
318.989
318.72
318.465
319.092
318.789
318.528
319.047
318.782
318.522
319.165
318.848
318.568
318.604
318.348
318.074
318.892
318.626
318.346
319.053
318.775
318.489
319.168
318.89
318.612
319.245
318.91
318.605
318.853
318.573
318.261
319.127
318.841
318.526
319.279
318.976
318.651
319.345
319.026
318.698
319.322
318.97
318.635
319.886
319.764
319.457
318.905
319.835
319.704
319.388
318.831
319.91
319.782
319.475
318.917
319.878
319.738
319.419
318.86
319.94
319.805
319.509
318.967
319.953
319.803
319.488
318.934
319.945
319.778
319.441
318.874
319.979
319.793
319.442
318.871
320.01
319.849
319.541
318.991
320
319.828
319.545
319.049
319.96
319.816
319.536
319.026
319.945
319.79
319.526
319.06
320.051
319.874
319.541
318.971
320.048
319.862
319.561
319.054
320.092
319.9
319.555
318.987
320.09
319.891
319.582
319.076
319.877
319.768
319.488
318.967
319.805
319.712
319.473
319.017
319.884
319.771
319.495
318.978
319.808
319.711
319.473
319.022
319.894
319.773
319.506
319.003
319.824
319.716
319.478
319.032
319.897
319.767
319.513
319.039
319.839
319.72
319.484
319.051
319.89
319.75
319.507
319.072
319.694
319.615
319.4
319.072
319.57
319.5
319.28
318.972
319.708
319.622
319.405
319.078
319.584
319.507
319.283
318.974
319.734
319.636
319.413
319.084
319.61
319.519
319.29
318.98
319.771
319.656
319.428
319.097
319.645
319.537
319.301
318.988
319.818
319.683
319.447
319.112
319.685
319.557
319.312
318.996
319.91
319.735
319.472
319.124
319.789
319.617
319.35
319.022
319.865
319.709
319.459
319.117
319.737
319.587
319.331
319.009
319.95
319.759
319.485
319.13
319.837
319.646
319.368
319.036
319.989
319.785
319.502
319.144
319.881
319.674
319.386
319.05
318.075
317.41
316.847
316.392
316.044
318.032
317.375
316.814
316.36
316.012
318.081
317.413
316.849
316.393
316.045
318.042
317.381
316.819
316.364
316.016
318.09
317.417
316.852
316.395
316.047
318.072
317.407
316.843
316.387
316.038
318.056
317.39
316.825
316.369
316.02
318.066
317.398
316.831
316.373
316.024
318.097
317.421
316.854
316.397
316.048
318.062
317.372
316.804
316.347
315.999
318.089
317.409
316.842
316.385
316.037
318.051
317.361
316.793
316.337
315.989
318.098
317.421
316.853
316.395
316.047
318.059
317.367
316.798
316.341
315.993
318.109
317.428
316.858
316.4
316.05
318.062
317.367
316.796
316.338
315.99
318.071
317.395
316.831
316.375
316.028
318.021
317.336
316.772
316.318
315.972
318.072
317.394
316.828
316.373
316.025
318.022
317.336
316.771
316.317
315.97
318.071
317.389
316.823
316.367
316.019
318.022
317.333
316.768
316.313
315.967
318.057
317.368
316.801
316.345
315.998
318.013
317.323
316.757
316.303
315.956
318.027
317.336
316.769
316.314
315.967
315.496
315.395
315.546
315.442
315.633
315.518
315.745
315.61
315.86
315.701
316.043
315.862
315.951
315.772
316.134
315.96
316.226
316.069
314.424
313.262
312.296
311.551
311.047
314.44
313.271
312.294
311.544
311.032
314.447
313.274
312.303
311.556
311.051
314.46
313.28
312.301
311.547
311.035
314.49
313.299
312.319
311.568
311.061
314.503
313.303
312.316
311.557
311.045
314.55
313.334
312.342
311.585
311.075
314.557
313.335
312.337
311.573
311.057
314.62
313.378
312.372
311.607
311.094
314.617
313.373
312.362
311.592
311.074
314.771
313.487
312.452
311.669
311.148
314.754
313.471
312.434
311.649
311.124
314.695
313.431
312.41