/*--------------------------------*- C++ -*----------------------------------*\
  =========                 |
  \\      /  F ield         | OpenFOAM: The Open Source CFD Toolbox
   \\    /   O peration     | Website:  https://openfoam.org
    \\  /    A nd           | Version:  13
     \\/     M anipulation  |
\*---------------------------------------------------------------------------*/
FoamFile
{
    format      ascii;
    class       volScalarField;
    location    "169.831886";
    object      T;
}
// * * * * * * * * * * * * * * * * * * * * * * * * * * * * * * * * * * * * * //

dimensions      [0 0 0 1 0 0 0];

internalField   nonuniform List<scalar> 
5712
(
1087.45
1087.29
1087.01
1086.76
1086.34
1086.08
1085.42
1085.2
1085.6
1085.35
1086.33
1086.08
1086.86
1086.62
1087.26
1087.08
1086.14
1085.81
1085.7
1085.24
1085.01
1084.58
1084.6
1084.06
1088.04
1089
1087.86
1088.76
1087.62
1088.54
1087.34
1088.21
1086.67
1087.18
1086.2
1086.84
1087.98
1087.43
1085.14
1084.33
1084.7
1084.09
1084.12
1083.43
1083.59
1083.06
1086.11
1085.27
1085.62
1084.98
1086.89
1086.06
1090.1
1090.76
1089.64
1090.32
1089.64
1090.46
1089.1
1089.86
1088.96
1090.08
1088.13
1089.17
1087.49
1088.51
1086.76
1087.8
1085.89
1085.74
1085.19
1085.11
1084.4
1084.21
1083.84
1083.65
1086.49
1086.68
1087.32
1087.35
1084.59
1084.59
1084.05
1084.16
1083.33
1083.17
1082.85
1082.77
1085.81
1086.13
1085.2
1085.67
1087.76
1089.01
1088.24
1089.64
1088.66
1089.94
1088.94
1090.39
1087.02
1088.23
1087.66
1089.03
1086.37
1087.56
1087.21
1088.56
1091.66
1093.09
1091.9
1093.32
1091.23
1092.56
1091.66
1093.02
1090.5
1091.53
1091.26
1092.38
1086.89
1085.13
1088.49
1089.7
1091.01
1085.38
1087.24
1089.15
1090.44
1091.85
1084.92
1086.58
1088.19
1089.71
1091.21
1094.42
1095.06
1095.14
1095.72
1093.75
1094.49
1094.69
1095.31
1092.58
1093.42
1093.91
1094.66
1085.79
1086.47
1087.83
1088.75
1089.71
1090.67
1091.21
1092.15
1093.19
1094.13
1085.22
1085.78
1087.08
1088.05
1088.83
1089.93
1090.57
1091.75
1092.76
1094
1086.22
1087.3
1085.44
1086.4
1084.39
1084.71
1083.69
1083.87
1087.29
1088.57
1088.05
1089.4
1084.78
1085.74
1084.35
1085.27
1083.13
1083.3
1082.73
1082.85
1086.6
1087.9
1086.17
1087.44
1089.4
1090.94
1092.01
1093.87
1090.02
1091.63
1092.42
1094.24
1088.84
1090.33
1091.62
1093.45
1088.31
1089.81
1091.06
1092.79
1095.27
1095.55
1096.08
1095.4
1095.51
1096
1094.84
1095.19
1095.76
1095.07
1095.22
1095.74
1093.95
1094.42
1095.06
1094.58
1094.8
1095.4
1087.31
1088.26
1089.28
1089.74
1090.58
1091.47
1091.58
1092.3
1093.09
1092.9
1093.5
1094.25
1094.19
1094.5
1095.2
1086.55
1087.62
1088.77
1089.33
1090.45
1091.59
1091.23
1092.22
1093.23
1092.76
1093.5
1094.4
1094.17
1094.58
1095.38
1083.01
1082.66
1082.7
1082.26
1083.91
1083.49
1083.56
1083.03
1082.83
1082.12
1082.74
1082.09
1082.62
1081.99
1082.48
1081.88
1081.99
1082.28
1081.8
1082.14
1081.86
1081.62
1081.91
1081.51
1082.61
1082.16
1081.79
1081.4
1081.52
1081.15
1081.48
1081.1
1081.41
1080.78
1081.53
1080.94
1081.32
1080.67
1081.35
1080.75
1081.23
1080.53
1081.07
1080.42
1080.94
1080.38
1080.62
1080.16
1082.21
1081.9
1081.81
1081.47
1083.16
1082.89
1082.69
1082.41
1081.19
1080.79
1081.54
1081.17
1081.42
1081.1
1081.03
1080.77
1082.25
1081.99
1081.82
1081.62
1080.85
1080.46
1080.5
1080.17
1080.68
1080.13
1080.35
1080.02
1080.96
1080.37
1080.68
1080.3
1080.4
1079.91
1080.06
1079.78
1080.09
1079.69
1079.8
1079.57
1081.44
1081.75
1080.85
1081.17
1081.43
1081.76
1080.81
1081.14
1081.41
1081.71
1080.73
1081.04
1082.5
1083.63
1081.79
1081.24
1080.65
1083.86
1082.74
1082.08
1081.54
1080.91
1083.41
1082.31
1081.53
1081
1080.58
1082.28
1083.02
1081.71
1082.43
1082.24
1082.94
1081.63
1082.31
1082.13
1082.79
1081.46
1082.1
1084.16
1084.73
1082.98
1083.56
1082.31
1082.9
1081.79
1082.39
1081.2
1081.8
1083.6
1083.93
1082.48
1082.81
1081.71
1082.12
1081.22
1081.72
1080.85
1081.46
1081.84
1081.96
1081.4
1081.39
1082.86
1082.95
1082.33
1082.26
1080.8
1080.95
1081.18
1081.43
1081.05
1080.96
1080.73
1080.6
1081.92
1081.76
1081.55
1081.35
1080.49
1080.56
1080.2
1080.24
1080.43
1080.75
1080.26
1080.76
1080.78
1081.18
1080.54
1081.1
1080.14
1080.38
1080.03
1080.46
1079.9
1080.11
1079.82
1080.19
1084.01
1085
1085.94
1083.65
1084.77
1085.71
1083.88
1084.88
1085.84
1083.49
1084.62
1085.6
1083.67
1084.66
1085.63
1083.22
1084.41
1085.45
1085.49
1086.44
1087.47
1084.34
1085.33
1086.38
1083.69
1084.73
1085.8
1083.24
1084.27
1085.31
1082.93
1084.18
1085.32
1084.55
1085.58
1086.75
1083.46
1084.51
1085.69
1082.85
1083.97
1085.18
1082.58
1083.76
1084.98
1082.65
1083.95
1085.2
1080.53
1080.97
1082.1
1084.19
1080.72
1081.18
1082.36
1084.46
1080.45
1080.9
1082.04
1084.15
1080.57
1081.07
1082.25
1084.36
1080.34
1080.82
1081.92
1083.96
1080.29
1080.83
1082
1084.09
1080.33
1080.93
1082.18
1084.31
1080.21
1080.88
1082.18
1084.33
1080.09
1080.66
1081.8
1083.87
1080.12
1080.74
1081.78
1083.64
1080.27
1080.78
1081.81
1083.73
1080.32
1080.88
1081.85
1083.6
1079.94
1080.57
1081.8
1083.95
1079.95
1080.62
1081.72
1083.63
1079.79
1080.48
1081.76
1083.89
1079.8
1080.51
1081.65
1083.55
1080.56
1080.95
1081.99
1083.95
1080.83
1081.16
1082.04
1083.75
1080.54
1080.94
1081.96
1083.91
1080.82
1081.16
1082.04
1083.74
1080.51
1080.93
1081.92
1083.82
1080.76
1081.14
1082.02
1083.7
1080.5
1080.96
1081.9
1083.68
1080.71
1081.13
1082
1083.63
1080.52
1081.02
1081.92
1083.55
1081.23
1081.51
1082.31
1083.53
1081.69
1081.93
1082.75
1083.9
1081.18
1081.48
1082.29
1083.51
1081.64
1081.91
1082.73
1083.88
1081.09
1081.43
1082.26
1083.49
1081.54
1081.86
1082.71
1083.86
1080.96
1081.36
1082.2
1083.44
1081.42
1081.8
1082.67
1083.83
1080.78
1081.26
1082.14
1083.39
1081.27
1081.73
1082.63
1083.81
1080.45
1081.08
1082.04
1083.34
1080.89
1081.51
1082.49
1083.71
1080.61
1081.17
1082.09
1083.37
1081.08
1081.62
1082.56
1083.76
1080.31
1080.99
1082
1083.32
1080.72
1081.4
1082.43
1083.66
1080.16
1080.9
1081.94
1083.27
1080.56
1081.3
1082.36
1083.61
1087.35
1089.9
1092.07
1093.84
1095.2
1087.51
1090.03
1092.2
1093.96
1095.32
1087.33
1089.89
1092.07
1093.84
1095.2
1087.48
1090.02
1092.18
1093.95
1095.31
1087.3
1089.88
1092.06
1093.83
1095.19
1087.37
1089.92
1092.09
1093.86
1095.22
1087.43
1089.98
1092.16
1093.93
1095.29
1087.39
1089.95
1092.14
1093.92
1095.28
1087.28
1089.87
1092.05
1093.82
1095.18
1087.41
1090.05
1092.24
1094.02
1095.38
1087.31
1089.91
1092.1
1093.87
1095.23
1087.45
1090.1
1092.29
1094.06
1095.42
1087.27
1089.87
1092.05
1093.83
1095.19
1087.42
1090.07
1092.27
1094.04
1095.4
1087.23
1089.84
1092.03
1093.81
1095.18
1087.41
1090.08
1092.28
1094.05
1095.42
1087.37
1089.96
1092.14
1093.91
1095.26
1087.56
1090.19
1092.37
1094.13
1095.49
1087.37
1089.97
1092.15
1093.91
1095.27
1087.56
1090.19
1092.37
1094.13
1095.49
1087.37
1089.99
1092.17
1093.94
1095.3
1087.56
1090.2
1092.38
1094.15
1095.51
1087.43
1090.07
1092.26
1094.02
1095.38
1087.59
1090.24
1092.42
1094.19
1095.55
1087.54
1090.19
1092.38
1094.14
1095.5
1098.17
1098.58
1097.98
1098.4
1097.65
1098.11
1097.22
1097.76
1096.79
1097.42
1096.12
1096.85
1096.46
1097.18
1095.78
1096.48
1095.43
1096.07
1102.66
1107.58
1111.71
1114.92
1117.13
1102.59
1107.54
1111.72
1114.95
1117.19
1102.58
1107.53
1111.68
1114.9
1117.11
1102.52
1107.51
1111.69
1114.94
1117.18
1102.41
1107.44
1111.62
1114.86
1117.07
1102.36
1107.42
1111.63
1114.9
1117.14
1102.19
1107.31
1111.53
1114.79
1117.01
1102.15
1107.3
1111.55
1114.84
1117.09
1101.93
1107.14
1111.41
1114.7
1116.94
1101.93
1107.15
1111.45
1114.76
1117.03
1101.36
1106.72
1111.1
1114.45
1116.72
1101.42
1106.78
1111.17
1114.54
1116.82
1101.64
1106.93
1111.26
1114.59
1116.84
1101.69
1106.98
1111.33
1114.67
1116.94
1101.07
1106.5
1110.93
1114.31
1116.59
1101.11
1106.54
1110.99
1114.39
1116.69
1100.78
1106.27
1110.75
1114.17
1116.46
1100.78
1106.29
1110.78
1114.22
1116.54
1081.97
1082.61
1083.18
1082.44
1083.41
1083.3
1083.27
1083.14
1083.49
1083.3
1084.34
1084.13
1084.8
1084.55
1084.15
1083.95
1083.9
1083.76
1083.85
1083.74
1082.48
1082.32
1084.27
1085.04
1085.28
1085.36
1084.65
1084.29
1085.18
1084.14
1085.95
1087.11
1084.34
1084.67
1085.57
1084.59
1084.98
1085.06
1083.55
1083.48
1083.98
1083.81
1083.58
1083.39
1083.61
1083.9
1084.9
1084.71
1084.34
1084.15
1082.79
1082.55
1082.98
1082.78
1083.08
1083.14
1083.67
1084.35
1083.66
1081.31
1080.71
1080.46
1080.49
1080.82
1081.45
1080.95
1080.73
1080.82
1081.25
1083.68
1083.41
1083.39
1083.62
1084.13
1084.48
1084.23
1084.23
1084.48
1085
1084.72
1084.46
1084.44
1084.69
1085.19
1084.8
1084.55
1084.55
1084.8
1085.31
1084.07
1083.81
1083.79
1084.03
1084.54
1083.01
1082.23
1081.83
1081.75
1081.98
1083.82
1082.98
1082.56
1082.47
1082.75
1083.23
1082.65
1082.34
1082.36
1082.75
1084.69
1083.89
1083.5
1083.45
1083.79
1085.88
1085.06
1084.66
1084.62
1084.95
1083.63
1083.21
1083.04
1083.17
1083.62
1083.84
1083.31
1083.05
1083.11
1083.52
1084.76
1084.25
1084.01
1084.08
1084.5
1083.92
1083.55
1083.43
1083.59
1084.06
1084.28
1083.86
1083.7
1083.84
1084.29
1084.4
1084.05
1083.94
1084.11
1084.58
1082.38
1081.72
1081.39
1081.36
1081.64
1082.68
1082.2
1081.97
1082.04
1082.47
1083.3
1082.92
1082.79
1082.94
1083.4
1083.16
1082.81
1082.71
1082.89
1083.37
1082.88
1082.48
1082.33
1082.47
1082.93
1082.73
1082.37
1082.26
1082.43
1082.91
1082.99
1082.68
1082.62
1082.83
1083.32
1083.28
1082.98
1082.92
1083.13
1083.62
1084.29
1083.99
1083.93
1084.14
1084.63
1084.12
1083.84
1083.8
1084.03
1084.53
1083.7
1083.37
1083.28
1083.46
1083.94
1083.53
1083.22
1083.16
1083.36
1083.85
1081.66
1081.04
1080.77
1080.79
1081.1
1081.74
1081.27
1081.07
1081.17
1081.6
1082.04
1081.49
1081.23
1081.26
1081.62
1082.06
1081.65
1081.49
1081.63
1082.08
1082.39
1082.02
1081.89
1082.05
1082.52
1082.36
1081.89
1081.68
1081.76
1082.19
1083.05
1082.74
1082.67
1082.87
1083.36
1083.76
1083.47
1083.44
1083.66
1084.16
1083.02
1082.68
1082.6
1082.78
1083.26
1082.37
1082.73
1082.4
1082.79
1081.52
1081.93
1081.5
1081.87
1082.43
1082.48
1082.81
1082.74
1081.53
1081.55
1081.91
1081.8
1083.27
1084.16
1083.59
1084.44
1083.28
1084.08
1083.65
1084.44
1083.67
1083.34
1083.48
1083.26
1083.96
1084.29
1083.28
1083.68
1083.1
1083.54
1082.41
1082.83
1082.16
1082.57
1084.12
1084.55
1083.86
1084.35
1084.76
1085.28
1084.97
1085.67
1085.21
1085.88
1084.91
1085.74
1085.23
1085.96
1084.76
1085.9
1084.98
1085.99
1085.42
1086.44
1086.01
1087.06
1082.76
1082.98
1082.94
1083.2
1081.63
1081.71
1081.82
1081.89
1084.01
1084.66
1083.84
1084.44
1083.23
1083.46
1083.6
1083.78
1082.11
1082.13
1082.45
1082.42
1084.3
1084.93
1084.71
1085.28
1085.12
1086.37
1086.17
1087.59
1085.01
1086.36
1085.98
1087.48
1085.4
1086.6
1086.43
1087.81
1085.83
1087.01
1086.8
1088.15
1085.03
1085.44
1085.81
1086.46
1084.96
1085.3
1085.92
1086.55
1084.84
1085.02
1086.13
1086.65
1082.71
1081.55
1083.85
1085.07
1086.62
1081.51
1082.62
1083.75
1085.04
1086.89
1081.61
1082.86
1084.3
1085.87
1087.49
1086.11
1086.41
1088.17
1088.77
1085.79
1086.1
1088.05
1088.65
1085.33
1085.58
1087.9
1088.5
1081.53
1081.7
1082.71
1082.91
1083.94
1084.14
1085.43
1085.68
1088.09
1088.74
1081.61
1081.78
1082.99
1083.39
1084.55
1085.07
1086.36
1086.98
1088.81
1089.59
1083.31
1084.02
1083.5
1084.22
1081.75
1081.81
1081.91
1081.93
1085.27
1086.3
1085.04
1086.01
1083.67
1084.49
1083.98
1084.87
1082.1
1082.18
1082.39
1082.49
1085.44
1086.6
1085.79
1087.02
1087.38
1088.72
1090.06
1091.75
1087.02
1088.32
1089.57
1091.16
1087.65
1089.04
1090.47
1092.22
1087.9
1089.38
1090.69
1092.41
1086.52
1086.78
1088.37
1088.41
1086.22
1086.5
1088.3
1088.3
1085.77
1086.19
1088.22
1088.25
1082.03
1082.64
1083.27
1083.84
1084.46
1084.95
1085.94
1086.4
1088.36
1088.36
1082.12
1082.77
1083.95
1084.54
1085.55
1086
1087.17
1087.37
1088.84
1088.72
1080.1
1080.08
1080.47
1080.32
1080.74
1080.71
1081.13
1080.96
1079.66
1079.34
1080.01
1079.68
1079.67
1079.37
1080.05
1079.73
1079.99
1079.66
1079.94
1079.7
1079.44
1079.75
1080.66
1081.07
1081.3
1081.7
1080.44
1080.9
1080.29
1080.71
1080.19
1080.61
1079.15
1079.04
1079.48
1079.35
1079.16
1079.01
1079.5
1079.32
1079.18
1078.98
1079.44
1079.2
1079.83
1079.55
1080.21
1079.86
1079.97
1079.94
1080.14
1080.07
1080.69
1080.67
1080.87
1080.83
1079.65
1079.55
1079.49
1079.45
1080.39
1080.25
1080.7
1080.48
1081.14
1081.04
1081.46
1081.3
1079.89
1079.71
1080.18
1079.91
1079.31
1079.07
1079.26
1079.14
1079.16
1078.98
1079.18
1079.09
1079.53
1079.24
1079.4
1079.24
1079.8
1079.46
1079.58
1079.39
1079.01
1079.06
1078.91
1079.01
1079.04
1079.1
1078.92
1079.02
1079.1
1079.15
1078.94
1079.03
1079.9
1080.61
1079.44
1079.13
1078.99
1080.61
1079.94
1079.48
1079.18
1079.05
1080.59
1079.89
1079.42
1079.16
1079.09
1079.3
1079.71
1079.29
1079.72
1079.3
1079.68
1079.26
1079.69
1079.3
1079.64
1079.23
1079.62
1080.62
1080.78
1079.94
1080.14
1079.53
1079.78
1079.27
1079.56
1079.21
1079.56
1080.55
1080.62
1079.87
1079.96
1079.44
1079.6
1079.23
1079.48
1079.22
1079.57
1079.85
1079.82
1079.99
1079.89
1080.57
1080.47
1080.74
1080.56
1079.55
1079.59
1079.43
1079.53
1080.22
1080.06
1080.45
1080.3
1080.98
1080.75
1081.24
1081.02
1079.74
1079.75
1079.95
1079.97
1079.33
1079.53
1079.36
1079.7
1079.24
1079.49
1079.27
1079.64
1079.48
1079.66
1079.48
1079.83
1079.67
1079.86
1079.64
1079.99
1080.2
1080.67
1080.36
1080.91
1080.14
1080.64
1080.31
1080.9
1080.09
1080.64
1080.24
1080.91
1081.11
1081.72
1080.51
1081.13
1080.17
1080.8
1080
1080.64
1080.18
1080.98
1080.89
1081.59
1080.28
1081.01
1080.01
1080.78
1079.99
1080.79
1080.26
1081.16
1079.32
1080.15
1081.55
1083.81
1079.6
1080.43
1081.85
1084.11
1079.3
1080.13
1081.52
1083.8
1079.57
1080.4
1081.8
1084.05
1079.29
1080.11
1081.43
1083.64
1079.46
1080.27
1081.61
1083.82
1079.77
1080.54
1081.91
1084.13
1080
1080.74
1082.08
1084.26
1079.36
1080.17
1081.46
1083.63
1079.51
1080.32
1081.48
1083.42
1079.32
1080.14
1081.37
1083.43
1079.48
1080.3
1081.45
1083.32
1079.48
1080.26
1081.58
1083.79
1079.57
1080.36
1081.54
1083.48
1079.63
1080.37
1081.68
1083.83
1079.67
1080.42
1081.59
1083.5
1079.22
1080.06
1081.38
1083.54
1079.35
1080.18
1081.38
1083.3
1079.24
1080.07
1081.37
1083.52
1079.38
1080.21
1081.4
1083.3
1079.29
1080.12
1081.37
1083.45
1079.42
1080.25
1081.42
1083.29
1079.37
1080.2
1081.38
1083.34
1079.47
1080.3
1081.44
1083.25
1079.49
1080.33
1081.44
1083.22
1079.66
1080.49
1081.61
1083.01
1080.06
1080.89
1082.03
1083.33
1079.66
1080.49
1081.61
1083
1080.06
1080.89
1082.03
1083.34
1079.66
1080.5
1081.62
1083.01
1080.07
1080.9
1082.05
1083.34
1079.67
1080.51
1081.62
1083.01
1080.08
1080.92
1082.06
1083.36
1079.69
1080.54
1081.63
1083.01
1080.1
1080.95
1082.09
1083.38
1079.82
1080.65
1081.74
1083.1
1080.19
1081.03
1082.16
1083.44
1079.75
1080.59
1081.68
1083.05
1080.13
1080.98
1082.11
1083.4
1079.92
1080.73
1081.81
1083.17
1080.29
1081.11
1082.22
1083.5
1080.04
1080.81
1081.88
1083.22
1080.42
1081.21
1082.3
1083.56
1087.13
1089.77
1091.99
1093.78
1095.16
1087.3
1089.9
1092.12
1093.91
1095.28
1087.13
1089.77
1091.99
1093.78
1095.16
1087.3
1089.9
1092.11
1093.9
1095.27
1087.12
1089.77
1091.99
1093.78
1095.15
1087.22
1089.82
1092.03
1093.82
1095.19
1087.32
1089.92
1092.12
1093.9
1095.27
1087.35
1089.93
1092.12
1093.9
1095.27
1087.14
1089.78
1092
1093.79
1095.16
1087.28
1089.98
1092.2
1093.99
1095.35
1087.14
1089.81
1092.03
1093.83
1095.2
1087.3
1090.01
1092.23
1094.02
1095.39
1087.18
1089.81
1092.02
1093.8
1095.17
1087.34
1090.02
1092.24
1094.02
1095.39
1087.2
1089.82
1092.02
1093.8
1095.17
1087.38
1090.06
1092.27
1094.05
1095.41
1087.14
1089.82
1092.05
1093.85
1095.22
1087.32
1090.05
1092.28
1094.07
1095.44
1087.15
1089.84
1092.06
1093.86
1095.23
1087.33
1090.05
1092.28
1094.08
1095.45
1087.17
1089.87
1092.1
1093.89
1095.26
1087.35
1090.08
1092.31
1094.1
1095.47
1087.25
1089.96
1092.19
1093.98
1095.35
1087.41
1090.13
1092.36
1094.14
1095.51
1087.38
1090.09
1092.32
1094.1
1095.47
1092.53
1093
1092.59
1093.08
1092.74
1093.24
1092.98
1093.47
1093.37
1093.79
1094.36
1094.91
1093.92
1094.39
1094.74
1095.34
1095.08
1095.7
1098.57
1104.66
1109.54
1113.2
1115.63
1098.43
1104.59
1109.53
1113.22
1115.69
1098.63
1104.7
1109.57
1113.23
1115.65
1098.51
1104.65
1109.56
1113.26
1115.72
1098.75
1104.79
1109.63
1113.27
1115.69
1098.63
1104.73
1109.62
1113.31
1115.75
1098.94
1104.92
1109.72
1113.35
1115.75
1098.81
1104.85
1109.7
1113.37
1115.81
1099.21
1105.1
1109.85
1113.45
1115.84
1099.03
1105
1109.81
1113.46
1115.88
1099.86
1105.55
1110.19
1113.71
1116.07
1099.75
1105.48
1110.16
1113.73
1116.11
1099.53
1105.31
1110.01
1113.57
1115.95
1099.36
1105.21
1109.97
1113.57
1115.98
1100.18
1105.79
1110.37
1113.86
1116.19
1100.11
1105.76
1110.37
1113.89
1116.25
1100.48
1106.04
1110.56
1114.02
1116.33
1100.45
1106.03
1110.58
1114.06
1116.4
1081.45
1082.05
1081.61
1080.97
1080.12
1080.47
1080.11
1080.52
1080.74
1081.16
1080.74
1081.1
1087.91
1087.8
1087.52
1087.08
1086.48
1085.76
1087.96
1087.85
1087.58
1087.17
1086.62
1085.98
1088.2
1088.62
1088.07
1088.48
1087.76
1088.12
1087.25
1087.54
1086.58
1086.8
1085.79
1086.03
1084.98
1084.25
1083.61
1083.09
1082.7
1082.42
1085.29
1084.62
1084.02
1083.52
1083.13
1082.85
1087.4
1087.19
1087.23
1087.5
1088.02
1087.28
1087.08
1087.11
1087.39
1087.91
1087
1086.79
1086.82
1087.1
1087.62
1086.55
1086.34
1086.36
1086.64
1087.16
1085.94
1085.72
1085.74
1086.01
1086.53
1085.21
1084.98
1084.99
1085.25
1085.77
1087.44
1087.23
1087.27
1087.55
1088.06
1087.33
1087.12
1087.16
1087.43
1087.95
1087.06
1086.85
1086.88
1087.16
1087.68
1086.64
1086.43
1086.45
1086.72
1087.24
1086.08
1085.86
1085.88
1086.15
1086.67
1085.43
1085.2
1085.21
1085.47
1085.99
1087.68
1087.48
1087.51
1087.79
1088.31
1088.11
1087.9
1087.94
1088.22
1088.73
1087.55
1087.35
1087.38
1087.66
1088.18
1087.96
1087.75
1087.79
1088.07
1088.58
1087.24
1087.03
1087.06
1087.34
1087.85
1087.6
1087.39
1087.43
1087.7
1088.22
1086.73
1086.51
1086.54
1086.81
1087.33
1087.01
1086.8
1086.83
1087.1
1087.62
1086.04
1085.82
1085.84
1086.11
1086.63
1086.26
1086.04
1086.06
1086.33
1086.85
1085.25
1085.02
1085.03
1085.29
1085.81
1085.48
1085.25
1085.26
1085.52
1086.03
1084.42
1084.17
1084.17
1084.42
1084.93
1083.66
1083.39
1083.37
1083.6
1084.11
1083
1082.7
1082.64
1082.85
1083.35
1082.44
1082.09
1082
1082.18
1082.66
1082
1081.61
1081.48
1081.64
1082.11
1081.69
1081.27
1081.13
1081.27
1081.73
1084.73
1084.48
1084.48
1084.73
1085.24
1084.04
1083.78
1083.75
1083.99
1084.5
1083.42
1083.13
1083.08
1083.3
1083.8
1082.89
1082.57
1082.5
1082.7
1083.19
1082.47
1082.13
1082.03
1082.22
1082.7
1082.18
1081.83
1081.72
1081.9
1082.37
1087.86
1087.63
1087.24
1086.68
1085.96
1085.12
1087.9
1087.68
1087.3
1086.77
1086.12
1085.37
1088.14
1088.56
1087.89
1088.29
1087.46
1087.81
1086.83
1087.1
1086.03
1086.23
1085.11
1085.3
1084.23
1083.42
1082.78
1082.35
1082.19
1082.23
1084.61
1083.9
1083.32
1082.92
1082.72
1082.71
1087.34
1087.13
1087.17
1087.45
1087.97
1087.11
1086.91
1086.94
1087.22
1087.74
1086.71
1086.51
1086.54
1086.82
1087.34
1086.15
1085.94
1085.97
1086.25
1086.77
1085.43
1085.21
1085.24
1085.51
1086.03
1084.57
1084.35
1084.37
1084.64
1085.16
1087.38
1087.18
1087.21
1087.49
1088.01
1087.16
1086.95
1086.99
1087.27
1087.79
1086.78
1086.57
1086.6
1086.88
1087.4
1086.25
1086.03
1086.06
1086.34
1086.86
1085.58
1085.37
1085.39
1085.66
1086.19
1084.83
1084.6
1084.62
1084.89
1085.41
1087.62
1087.42
1087.45
1087.73
1088.25
1088.04
1087.84
1087.88
1088.15
1088.67
1087.37
1087.17
1087.21
1087.48
1088
1087.77
1087.57
1087.6
1087.88
1088.4
1086.94
1086.73
1086.77
1087.04
1087.56
1087.29
1087.08
1087.12
1087.39
1087.91
1086.31
1086.1
1086.13
1086.41
1086.93
1086.57
1086.36
1086.39
1086.67
1087.19
1085.5
1085.29
1085.31
1085.59
1086.11
1085.69
1085.48
1085.5
1085.78
1086.3
1084.57
1084.34
1084.37
1084.64
1085.16
1084.76
1084.53
1084.55
1084.82
1085.34
1083.68
1083.44
1083.45
1083.71
1084.23
1082.85
1082.59
1082.58
1082.83
1083.35
1082.18
1081.89
1081.86
1082.09
1082.6
1081.71
1081.39
1081.32
1081.52
1082.02
1081.5
1081.13
1081.02
1081.19
1081.67
1081.5
1081.1
1080.96
1081.11
1081.57
1084.05
1083.81
1083.82
1084.08
1084.6
1083.33
1083.07
1083.06
1083.31
1083.83
1082.73
1082.45
1082.42
1082.65
1083.16
1082.3
1081.99
1081.94
1082.15
1082.65
1082.07
1081.74
1081.66
1081.85
1082.34
1082.04
1081.69
1081.59
1081.77
1082.25
1082.16
1082.06
1083.32
1084.23
1084.27
1084.49
1083.66
1081.61
1081.87
1081.73
1082.47
1082.38
1082.25
1082.84
1082.95
1083.29
1081.56
1081.63
1082.28
1082.35
1081.96
1082.07
1082.57
1082.69
1083.49
1083.5
1082.81
1082.81
1081.84
1081.85
1081.55
1081.8
1081.9
1081.62
1082.5
1083.23
1082.34
1081
1080.43
1080.2
1080.26
1080.6
1081.21
1080.72
1080.52
1080.62
1081.05
1082.75
1082.49
1082.49
1082.74
1083.26
1083.67
1083.44
1083.45
1083.71
1084.24
1083.71
1083.48
1083.48
1083.74
1084.26
1083.94
1083.7
1083.72
1083.98
1084.5
1083.1
1082.85
1082.85
1083.11
1083.63
1080.6
1080.08
1079.88
1079.96
1080.31
1080.88
1080.39
1080.21
1080.31
1080.69
1080.98
1080.56
1080.42
1080.56
1081.02
1081.58
1081.15
1081
1081.14
1081.58
1081.75
1081.43
1081.37
1081.58
1082.07
1081.57
1081.2
1081.1
1081.28
1081.76
1082.23
1081.94
1081.89
1082.12
1082.62
1082.33
1082.02
1081.97
1082.18
1082.68
1082.69
1082.41
1082.38
1082.61
1083.11
1080.56
1080.06
1079.86
1079.94
1080.31
1080.92
1080.53
1080.41
1080.57
1081.04
1081.66
1081.35
1081.29
1081.51
1082.01
1081.74
1081.44
1081.4
1081.63
1082.13
1081.31
1080.98
1080.91
1081.11
1081.6
1081.44
1081.13
1081.07
1081.29
1081.79
1081.97
1081.69
1081.66
1081.89
1082.4
1082.1
1081.83
1081.8
1082.04
1082.56
1082.92
1082.65
1082.64
1082.88
1083.4
1082.93
1082.68
1082.67
1082.93
1083.44
1082.22
1081.94
1081.91
1082.14
1082.65
1082.23
1081.95
1081.93
1082.17
1082.69
1080.77
1080.23
1080.02
1080.09
1080.44
1081.07
1080.63
1080.47
1080.59
1081.05
1080.69
1080.24
1080.06
1080.17
1080.57
1081.11
1080.74
1080.63
1080.8
1081.28
1081.25
1080.91
1080.83
1081.03
1081.52
1080.9
1080.51
1080.38
1080.53
1081
1081.9
1081.62
1081.59
1081.82
1082.33
1082.65
1082.4
1082.39
1082.64
1083.16
1081.73
1081.44
1081.39
1081.62
1082.13
1082.61
1082.12
1081.92
1081.99
1082.32
1082.96
1082.25
1082.3
1081.38
1081.36
1082.34
1082.41
1081.41
1081.45
1083.19
1084.18
1083.2
1084.09
1083.29
1083.25
1083.93
1082.23
1082.27
1081.35
1081.32
1082.32
1082.4
1081.38
1081.44
1083.25
1084.28
1083.25
1084.17
1083.34
1083.27
1083.99
1082.24
1082.29
1081.34
1081.31
1082.34
1082.42
1081.38
1081.45
1083.29
1084.55
1083.3
1084.4
1083.39
1083.31
1084.19
1082.42
1082.47
1081.5
1081.47
1082.53
1082.62
1081.55
1081.62
1083.54
1084.87
1083.54
1084.71
1083.61
1083.52
1084.45
1082.74
1082.79
1081.82
1081.79
1082.84
1082.95
1081.87
1081.94
1083.87
1085.11
1083.86
1084.98
1083.92
1083.85
1084.73
1083.31
1083.35
1082.41
1082.38
1083.4
1083.49
1082.45
1082.52
1084.37
1085.52
1084.35
1085.4
1084.4
1084.33
1085.15
1079.98
1079.97
1080.6
1080.6
1079.99
1080
1080.62
1080.64
1079.53
1079.19
1079.55
1079.24
1079.56
1079.62
1079.34
1079.93
1079.94
1080.56
1080.55
1079.96
1079.99
1080.59
1080.62
1079.46
1079.18
1079.5
1079.25
1079.53
1079.61
1079.36
1079.91
1079.93
1080.55
1080.53
1079.97
1080.01
1080.59
1080.63
1079.49
1079.31
1079.54
1079.37
1079.59
1079.68
1079.47
1080.07
1080.09
1080.7
1080.68
1080.15
1080.2
1080.75
1080.8
1079.69
1079.61
1079.75
1079.66
1079.82
1079.92
1079.76
1080.41
1080.44
1081.03
1081.01
1080.5
1080.58
1081.08
1081.13
1080.07
1080.04
1080.13
1080.08
1080.21
1080.32
1080.16
1081.03
1081.06
1081.64
1081.62
1081.12
1081.19
1081.69
1081.73
1080.7
1080.6
1080.75
1080.65
1080.82
1080.92
1080.73
1087.48
1087.33
1087.02
1086.76
1086.35
1086.09
1085.42
1085.21
1085.6
1085.36
1086.33
1086.09
1086.87
1086.63
1087.29
1087.12
1086.14
1085.81
1085.7
1085.24
1085.01
1084.59
1084.61
1084.06
1088.06
1089.02
1087.89
1088.78
1087.63
1088.55
1087.35
1088.22
1086.67
1087.18
1086.2
1086.85
1087.98
1087.43
1085.15
1084.33
1084.7
1084.09
1084.12
1083.43
1083.59
1083.07
1086.12
1085.27
1085.63
1084.98
1086.89
1086.07
1090.12
1090.77
1089.67
1090.35
1089.64
1090.46
1089.1
1089.86
1088.97
1090.08
1088.14
1089.17
1087.49
1088.51
1086.76
1087.8
1085.89
1085.75
1085.19
1085.12
1084.4
1084.21
1083.84
1083.65
1086.49
1086.68
1087.32
1087.35
1084.59
1084.59
1084.05
1084.16
1083.33
1083.17
1082.85
1082.77
1085.81
1086.13
1085.2
1085.68
1087.77
1089.01
1088.24
1089.64
1088.66
1089.94
1088.94
1090.39
1087.03
1088.24
1087.66
1089.03
1086.37
1087.56
1087.21
1088.56
1091.68
1093.11
1091.91
1093.33
1091.23
1092.56
1091.66
1093.02
1090.5
1091.53
1091.26
1092.38
1086.89
1085.13
1088.5
1089.7
1091.01
1085.38
1087.25
1089.15
1090.44
1091.85
1084.92
1086.58
1088.19
1089.72
1091.21
1094.44
1095.08
1095.15
1095.73
1093.75
1094.49
1094.69
1095.31
1092.59
1093.42
1093.91
1094.66
1085.79
1086.47
1087.83
1088.76
1089.71
1090.67
1091.21
1092.15
1093.19
1094.14
1085.22
1085.78
1087.09
1088.05
1088.83
1089.93
1090.57
1091.75
1092.76
1094
1086.22
1087.3
1085.44
1086.4
1084.39
1084.71
1083.69
1083.87
1087.29
1088.57
1088.06
1089.41
1084.78
1085.74
1084.35
1085.27
1083.13
1083.3
1082.73
1082.85
1086.6
1087.9
1086.17
1087.44
1089.4
1090.94
1092.01
1093.87
1090.02
1091.63
1092.42
1094.24
1088.84
1090.33
1091.62
1093.45
1088.31
1089.81
1091.06
1092.79
1095.28
1095.57
1096.1
1095.41
1095.52
1096.01
1094.84
1095.19
1095.76
1095.07
1095.22
1095.75
1093.95
1094.42
1095.06
1094.58
1094.81
1095.4
1087.31
1088.26
1089.28
1089.74
1090.58
1091.47
1091.58
1092.3
1093.09
1092.9
1093.5
1094.25
1094.19
1094.5
1095.2
1086.55
1087.62
1088.77
1089.33
1090.45
1091.59
1091.23
1092.22
1093.23
1092.76
1093.5
1094.4
1094.17
1094.58
1095.38
1083.01
1082.66
1082.7
1082.26
1083.91
1083.49
1083.56
1083.03
1082.84
1082.13
1082.76
1082.1
1082.62
1081.99
1082.47
1081.88
1081.99
1082.28
1081.8
1082.14
1081.86
1081.62
1081.91
1081.51
1082.61
1082.16
1081.79
1081.4
1081.52
1081.15
1081.48
1081.1
1081.42
1080.79
1081.54
1080.95
1081.32
1080.67
1081.35
1080.75
1081.23
1080.53
1081.07
1080.42
1080.94
1080.38
1080.62
1080.16
1082.21
1081.91
1081.81
1081.47
1083.16
1082.89
1082.69
1082.41
1081.19
1080.79
1081.54
1081.17
1081.42
1081.1
1081.03
1080.77
1082.25
1081.99
1081.82
1081.62
1080.85
1080.46
1080.5
1080.17
1080.68
1080.13
1080.35
1080.02
1080.96
1080.37
1080.68
1080.3
1080.4
1079.91
1080.06
1079.78
1080.09
1079.69
1079.8
1079.57
1081.45
1081.75
1080.85
1081.17
1081.43
1081.76
1080.81
1081.14
1081.41
1081.71
1080.74
1081.04
1082.5
1083.63
1081.79
1081.24
1080.65
1083.86
1082.74
1082.09
1081.54
1080.91
1083.41
1082.32
1081.53
1081
1080.58
1082.29
1083.02
1081.71
1082.43
1082.24
1082.94
1081.63
1082.31
1082.13
1082.79
1081.46
1082.1
1084.16
1084.73
1082.98
1083.56
1082.31
1082.9
1081.79
1082.39
1081.2
1081.8
1083.6
1083.94
1082.48
1082.81
1081.71
1082.12
1081.23
1081.72
1080.85
1081.46
1081.84
1081.96
1081.4
1081.4
1082.86
1082.95
1082.33
1082.26
1080.8
1080.95
1081.18
1081.43
1081.05
1080.96
1080.73
1080.6
1081.92
1081.76
1081.55
1081.35
1080.49
1080.56
1080.2
1080.24
1080.43
1080.75
1080.26
1080.76
1080.78
1081.18
1080.54
1081.1
1080.14
1080.38
1080.03
1080.46
1079.9
1080.11
1079.82
1080.19
1084.02
1085.01
1085.94
1083.66
1084.78
1085.71
1083.88
1084.88
1085.84
1083.49
1084.62
1085.6
1083.68
1084.66
1085.63
1083.22
1084.41
1085.45
1085.49
1086.44
1087.47
1084.34
1085.33
1086.38
1083.69
1084.73
1085.8
1083.24
1084.27
1085.31
1082.93
1084.18
1085.32
1084.55
1085.58
1086.75
1083.46
1084.51
1085.69
1082.85
1083.97
1085.18
1082.58
1083.76
1084.98
1082.65
1083.95
1085.21
1080.53
1080.97
1082.11
1084.19
1080.73
1081.19
1082.37
1084.47
1080.45
1080.9
1082.04
1084.15
1080.57
1081.07
1082.25
1084.36
1080.34
1080.82
1081.92
1083.96
1080.29
1080.83
1082
1084.09
1080.33
1080.93
1082.18
1084.31
1080.21
1080.88
1082.18
1084.33
1080.09
1080.66
1081.8
1083.87
1080.12
1080.74
1081.78
1083.64
1080.27
1080.78
1081.81
1083.73
1080.32
1080.88
1081.85
1083.6
1079.94
1080.57
1081.8
1083.95
1079.95
1080.62
1081.72
1083.63
1079.79
1080.48
1081.76
1083.89
1079.8
1080.51
1081.65
1083.55
1080.56
1080.95
1081.99
1083.95
1080.83
1081.16
1082.04
1083.76
1080.54
1080.94
1081.96
1083.91
1080.82
1081.16
1082.04
1083.74
1080.51
1080.93
1081.92
1083.82
1080.76
1081.14
1082.02
1083.7
1080.5
1080.96
1081.9
1083.68
1080.71
1081.13
1082
1083.63
1080.52
1081.02
1081.92
1083.55
1081.23
1081.51
1082.31
1083.53
1081.69
1081.93
1082.74
1083.89
1081.18
1081.48
1082.29
1083.51
1081.64
1081.91
1082.73
1083.88
1081.09
1081.44
1082.26
1083.49
1081.54
1081.86
1082.71
1083.86
1080.96
1081.36
1082.2
1083.44
1081.42
1081.8
1082.67
1083.83
1080.78
1081.26
1082.14
1083.39
1081.27
1081.73
1082.63
1083.81
1080.45
1081.08
1082.04
1083.34
1080.89
1081.51
1082.49
1083.71
1080.62
1081.17
1082.09
1083.37
1081.08
1081.62
1082.56
1083.76
1080.31
1080.99
1082
1083.32
1080.72
1081.4
1082.43
1083.66
1080.16
1080.9
1081.94
1083.27
1080.56
1081.3
1082.36
1083.61
1087.35
1089.9
1092.07
1093.84
1095.2
1087.52
1090.04
1092.2
1093.97
1095.32
1087.33
1089.89
1092.07
1093.84
1095.2
1087.48
1090.01
1092.18
1093.95
1095.31
1087.3
1089.88
1092.06
1093.83
1095.19
1087.37
1089.92
1092.09
1093.86
1095.22
1087.43
1089.98
1092.16
1093.93
1095.29
1087.39
1089.95
1092.14
1093.91
1095.28
1087.28
1089.86
1092.05
1093.82
1095.18
1087.41
1090.05
1092.24
1094.02
1095.38
1087.3
1089.91
1092.1
1093.87
1095.23
1087.45
1090.1
1092.29
1094.06
1095.42
1087.27
1089.86
1092.05
1093.83
1095.19
1087.42
1090.07
1092.27
1094.04
1095.4
1087.23
1089.84
1092.03
1093.81
1095.18
1087.41
1090.08
1092.28
1094.05
1095.42
1087.37
1089.96
1092.14
1093.9
1095.26
1087.56
1090.19
1092.36
1094.13
1095.48
1087.37
1089.97
1092.15
1093.91
1095.27
1087.56
1090.19
1092.37
1094.13
1095.49
1087.37
1089.99
1092.17
1093.94
1095.3
1087.56
1090.2
1092.38
1094.15
1095.51
1087.43
1090.07
1092.26
1094.02
1095.38
1087.59
1090.24
1092.42
1094.19
1095.55
1087.54
1090.19
1092.38
1094.14
1095.5
1098.18
1098.59
1097.98
1098.4
1097.65
1098.11
1097.22
1097.76
1096.79
1097.42
1096.12
1096.85
1096.46
1097.18
1095.78
1096.48
1095.43
1096.07
1102.67
1107.58
1111.71
1114.92
1117.13
1102.6
1107.54
1111.72
1114.95
1117.19
1102.58
1107.53
1111.68
1114.9
1117.11
1102.52
1107.51
1111.69
1114.94
1117.18
1102.41
1107.44
1111.62
1114.86
1117.07
1102.36
1107.42
1111.63
1114.9
1117.14
1102.19
1107.31
1111.53
1114.79
1117.01
1102.15
1107.3
1111.55
1114.84
1117.09
1101.93
1107.14
1111.41
1114.7
1116.94
1101.93
1107.15
1111.45
1114.76
1117.03
1101.36
1106.72
1111.1
1114.45
1116.72
1101.42
1106.78
1111.17
1114.54
1116.82
1101.64
1106.93