/*--------------------------------*- C++ -*----------------------------------*\
  =========                 |
  \\      /  F ield         | OpenFOAM: The Open Source CFD Toolbox
   \\    /   O peration     | Website:  https://openfoam.org
    \\  /    A nd           | Version:  13
     \\/     M anipulation  |
\*---------------------------------------------------------------------------*/
FoamFile
{
    format      ascii;
    class       volScalarField;
    location    "419.831886";
    object      T;
}
// * * * * * * * * * * * * * * * * * * * * * * * * * * * * * * * * * * * * * //

dimensions      [0 0 0 1 0 0 0];

internalField   nonuniform List<scalar> 
5712
(
319.948
320.171
320.52
320.862
321.234
321.606
322.052
322.385
321.671
322.054
321.019
321.385
320.476
320.8
320.023
320.265
321.657
322.194
322.285
323.022
322.695
323.36
323.322
324.187
319.482
318.655
319.703
318.906
320.053
319.244
320.406
319.608
321.382
320.717
322.039
321.185
319.966
320.613
323.026
324.186
323.795
324.683
324.038
325.09
324.93
325.746
322.093
323.242
322.807
323.705
321.278
322.373
317.701
317.029
318.077
317.351
318.279
317.43
318.76
317.941
319.126
317.997
319.999
318.872
320.751
319.597
321.706
320.488
322.269
322.542
323.253
323.452
323.674
323.956
324.561
324.838
321.965
321.978
320.919
321.076
324.118
324.223
324.926
324.876
325.366
325.587
326.129
326.228
322.87
322.744
323.717
323.388
320.675
319.342
320.498
319.106
319.648
318.367
319.626
318.245
321.582
320.217
321.241
319.826
322.444
321.042
321.86
320.428
316.255
314.985
316.027
314.825
316.762
315.519
316.343
315.162
317.581
316.557
316.869
315.865
321.009
322.557
319.577
318.524
317.319
322.147
320.516
318.782
317.696
316.499
322.879
321.421
320.023
318.701
317.364
313.831
313.082
313.423
312.785
314.42
313.56
313.836
313.144
315.49
314.496
314.578
313.754
321.508
320.449
319.761
318.5
318.127
316.905
316.9
315.754
315.384
314.353
322.373
321.471
320.751
319.485
319.268
317.927
317.825
316.471
316.061
314.76
321.948
320.567
322.99
321.722
323.594
322.846
324.603
323.975
321.313
319.854
320.333
318.8
323.88
322.609
324.515
323.285
325.43
324.807
326.061
325.488
322.198
320.711
322.812
321.35
319.454
317.9
317.259
315.591
318.651
317.014
316.673
315.02
320.176
318.666
317.791
316.153
320.851
319.307
318.44
316.865
312.517
311.914
311.232
312.515
312.003
311.345
312.886
312.209
311.481
312.811
312.252
311.539
313.639
312.839
312.02
313.269
312.595
311.792
319.176
317.82
316.47
317.104
315.896
314.722
315.631
314.536
313.495
314.646
313.652
312.669
313.671
312.843
311.902
320.212
318.615
317.031
317.744
316.167
314.698
316.175
314.727
313.41
314.951
313.694
312.508
313.766
312.765
311.686
324.521
325.098
325.061
325.827
323.698
324.377
324.286
325.157
324.162
324.909
324.321
324.995
324.589
325.234
324.857
325.439
325.748
325.218
326.174
325.521
325.599
326.043
326.449
327.171
325.86
326.618
326.145
326.901
326.705
327.378
326.345
327.071
325.711
326.422
325.573
326.167
325.967
326.656
325.972
326.54
326.284
326.981
326.656
327.203
326.943
327.335
327.555
327.772
325.696
326.136
326.454
326.912
324.834
325.196
325.65
326.025
326.973
327.52
326.277
326.817
327.161
327.576
327.852
328.154
326.404
326.733
327.128
327.349
327.622
328.127
328.277
328.659
327.381
327.77
327.852
327.946
326.803
327.304
327.229
327.424
327.932
328.193
328.395
328.398
328.522
328.646
328.872
328.793
325.413
324.798
326.245
325.659
325.534
324.887
326.362
325.755
325.733
325.152
326.555
326.013
324.987
323.922
325.633
326.207
326.778
323.521
324.548
325.066
325.633
326.299
324.265
325.329
326.106
326.607
326.912
323.904
322.76
324.762
323.639
324.058
322.945
324.945
323.863
324.396
323.314
325.298
324.277
322.972
322.005
324.069
323.06
324.65
323.629
325.162
324.13
325.813
324.829
323.867
323.172
324.953
324.24
325.706
324.92
326.159
325.256
326.431
325.412
326.029
325.517
326.81
326.428
325.042
324.555
325.914
325.58
327.334
326.788
326.639
325.98
327.434
327.147
327.998
327.756
326.612
326.362
327.218
327.022
327.913
327.454
328.434
328.012
327.559
326.823
327.468
326.551
326.937
326.09
326.986
325.991
328.081
327.445
327.892
327.058
328.54
327.931
328.296
327.547
321.269
319.84
318.534
321.793
320.16
318.834
321.527
320.065
318.72
322.081
320.423
319.027
321.954
320.494
319.104
322.552
320.792
319.286
320.783
319.38
317.949
321.797
320.326
318.833
322.345
320.796
319.26
322.771
321.196
319.67
323.063
321.183
319.523
322.068
320.451
318.765
323.086
321.409
319.667
323.644
321.869
320.059
323.81
321.956
320.13
323.533
321.532
319.694
326.519
325.652
323.932
321.19
326.196
325.288
323.542
320.818
326.678
325.769
324.029
321.252
326.48
325.506
323.722
320.963
326.889
325.916
324.223
321.504
326.996
325.929
324.135
321.355
326.959
325.791
323.887
321.072
327.206
325.91
323.923
321.091
327.387
326.23
324.432
321.643
327.325
326.08
324.399
321.86
327.04
325.986
324.36
321.777
326.947
325.814
324.26
321.878
327.677
326.416
324.474
321.574
327.658
326.315
324.525
321.903
327.977
326.61
324.592
321.689
327.954
326.522
324.668
322.035
326.444
325.65
324.062
321.456
325.967
325.268
323.897
321.602
326.495
325.671
324.096
321.504
325.997
325.265
323.899
321.625
326.572
325.689
324.151
321.625
326.113
325.308
323.93
321.678
326.608
325.65
324.169
321.773
326.224
325.34
323.968
321.765
326.575
325.545
324.115
321.893
325.256
324.642
323.397
321.663
324.471
323.915
322.649
320.987
325.353
324.694
323.435
321.7
324.57
323.963
322.677
321.006
325.53
324.785
323.49
321.74
324.743
324.046
322.721
321.043
325.785
324.924
323.589
321.82
324.976
324.165
322.791
321.092
326.108
325.105
323.708
321.905
325.245
324.302
322.868
321.141
326.72
325.462
323.892
321.999
325.921
324.701
323.117
321.306
326.419
325.281
323.795
321.946
325.585
324.499
322.99
321.224
326.994
325.631
323.985
322.054
326.235
324.894
323.239
321.401
327.261
325.808
324.106
322.151
326.53
325.085
323.366
321.5
317.498
314.717
312.499
310.807
309.591
317.294
314.568
312.373
310.697
309.49
317.529
314.733
312.508
310.814
309.596
317.34
314.595
312.392
310.711
309.502
317.583
314.757
312.523
310.824
309.604
317.501
314.717
312.491
310.795
309.577
317.432
314.651
312.428
310.736
309.522
317.501
314.696
312.458
310.757
309.538
317.626
314.781
312.537
310.833
309.611
317.457
314.572
312.344
310.659
309.452
317.579
314.724
312.487
310.79
309.573
317.395
314.517
312.299
310.622
309.419
317.643
314.79
312.54
310.832
309.608
317.449
314.555
312.325
310.64
309.433
317.713
314.834
312.568
310.852
309.624
317.477
314.564
312.324
310.635
309.427
317.469
314.648
312.433
310.748
309.537
317.217
314.39
312.204
310.545
309.354
317.479
314.647
312.428
310.743
309.532
317.226
314.392
312.203
310.544
309.352
317.481
314.63
312.408
310.723
309.513
317.23
314.384
312.192
310.532
309.341
317.413
314.542
312.325
310.647
309.443
317.196
314.345
312.154
310.497
309.308
317.269
314.407
312.205
310.54
309.345
311.457
311.142
311.653
311.331
312.025
311.658
312.522
312.067
313.067
312.504
314.021
313.399
313.559
312.934
314.447
313.863
314.863
314.34
308.869
306.333
304.414
303.057
302.202
308.879
306.336
304.402
303.042
302.177
308.96
306.378
304.438
303.072
302.212
308.967
306.376
304.426
303.052
302.186
309.145
306.471
304.491
303.104
302.235
309.145
306.466
304.476
303.082
302.207
309.4
306.606
304.568
303.152
302.269
309.379
306.589
304.546
303.125
302.238
309.707
306.778
304.668
303.215
302.315
309.639
306.734
304.631
303.179
302.276
310.369
307.187
304.924
303.383
302.44
310.271
307.118
304.869
303.335
302.394
310.041
306.979
304.791
303.294
302.373
309.94
306.911
304.737
303.247
302.327
310.683
307.394
305.06
303.475
302.509
310.616
307.344
305.017
303.435
302.47
310.99
307.601
305.198
303.57
302.581
310.965
307.574
305.172
303.542
302.549
326.419
325.864
324.915
325.548
323.547
323.728
323.878
324.132
323.809
324.132
323.012
323.357
322.379
322.768
322.943
323.286
323.087
323.344
323.009
323.208
325.24
324.92
320.543
319.215
318.988
318.775
319.936
322.669
321.375
322.201
320.082
318.466
321.236
321.18
319.806
320.655
320.267
319.909
323.565
322.869
321.623
321.707
322.323
322.414
321.792
321.34
319.846
319.974
320.854
320.996
324.675
324.354
324.015
323.665
323.009
323.346
321.735
320.513
321.874
326.659
327.266
327.402
327.11
326.394
326.083
326.653
326.78
326.439
325.585
321.369
321.727
321.718
321.328
320.553
319.98
320.301
320.277
319.897
319.162
319.751
320.078
320.061
319.692
318.968
319.524
319.839
319.815
319.444
318.724
320.736
321.081
321.067
320.685
319.929
324.117
324.887
325.205
325.082
324.544
322.86
323.675
324.016
323.91
323.338
323.336
323.971
324.204
323.975
323.234
321.433
322.202
322.499
322.358
321.729
319.708
320.458
320.743
320.614
320.024
322.192
322.678
322.783
322.467
321.706
322.227
322.802
322.989
322.735
322.002
320.778
321.31
321.474
321.225
320.528
321.552
321.988
322.055
321.72
320.965
321.182
321.646
321.744
321.438
320.706
320.768
321.183
321.239
320.909
320.176
324.96
325.624
325.863
325.673
325.056
323.941
324.506
324.667
324.374
323.587
322.563
323.025
323.1
322.758
321.975
322.626
323.061
323.11
322.746
321.951
323.302
323.788
323.879
323.537
322.738
323.365
323.818
323.875
323.506
322.691
322.686
323.091
323.108
322.719
321.911
322.217
322.614
322.631
322.248
321.454
320.666
321.037
321.052
320.692
319.948
320.787
321.144
321.143
320.769
320.016
321.734
322.147
322.187
321.83
321.06
321.865
322.262
322.284
321.911
321.131
326.054
326.685
326.857
326.599
325.929
325.466
326.019
326.14
325.8
324.956
325.242
325.831
326.012
325.746
325.02
324.697
325.202
325.292
324.931
324.091
323.994
324.468
324.536
324.168
323.339
324.417
324.968
325.113
324.804
323.998
322.632
323.042
323.066
322.682
321.878
321.345
321.712
321.712
321.33
320.559
322.791
323.219
323.259
322.885
322.082
327.45
326.765
327.419
326.665
328.346
327.555
328.368
327.66
327.383
327.327
326.687
326.874
328.329
328.277
327.629
327.849
326.451
325.421
325.818
324.836
326.453
325.536
325.733
324.837
325.771
326.397
326.068
326.494
325.693
325.056
325.864
325.185
326.251
325.53
326.76
326.053
327.232
326.545
325
324.294
325.42
324.637
324.276
323.485
324.412
323.441
323.872
322.945
324.533
323.414
323.876
322.875
324.789
323.358
324.301
322.99
323.588
322.279
322.728
321.444
326.987
326.671
326.676
326.348
328.117
327.954
327.803
327.656
325.552
324.869
325.86
325.195
326.198
325.947
325.607
325.453
327.337
327.268
326.771
326.792
325.063
324.467
324.441
323.963
324.313
322.788
323.306
321.762
324.585
322.979
323.602
321.991
323.83
322.368
322.92
321.421
323.191
321.767
322.422
320.963
324.58
324.327
323.543
323.119
324.7
324.482
323.469
323.047
324.872
324.763
323.314
322.957
327.074
328.228
325.922
324.628
322.883
328.268
327.181
326.044
324.706
322.722
328.109
326.855
325.393
323.786
322.083
323.736
323.27
321.704
320.963
324.03
323.563
321.796
321.054
324.463
324.047
321.897
321.149
328.184
327.807
327.034
326.64
325.807
325.432
324.306
323.895
321.676
320.899
328.025
327.578
326.655
325.999
325.092
324.36
323.305
322.521
320.976
320.1
326.211
325.199
325.877
324.847
327.766
327.33
327.442
327.019
324.163
322.912
324.514
323.309
325.555
324.416
325.067
323.866
327.075
326.588
326.604
326.066
323.856
322.485
323.357
321.92
322.147
320.739
319.701
318.13
322.59
321.195
320.225
318.721
321.768
320.326
319.229
317.63
321.393
319.858
318.902
317.33
322.827
322.261
320.888
320.523
323.135
322.513
320.941
320.574
323.551
322.747
320.97
320.514
327.093
325.922
325.913
324.822
324.788
323.823
323.311
322.383
320.765
320.235
326.783
325.499
325.011
323.837
323.447
322.453
321.857
321.091
320.126
319.622
329.697
329.71
328.992
329.269
329.118
329.113
328.403
328.679
330.034
330.195
329.33
329.507
330.031
330.195
329.267
329.456
329.401
330.036
329.567
330.019
330.16
329.531
328.648
327.931
328.075
327.389
328.574
327.79
328.913
328.168
328.713
327.957
330.188
329.962
329.517
329.326
330.236
330.02
329.511
329.364
330.302
330.101
329.772
329.641
329.029
328.959
328.312
328.359
329.749
329.669
329.443
329.428
329.058
328.983
328.748
328.709
329.845
329.829
330.143
330.041
328.991
329.087
328.452
328.662
328.292
328.341
327.744
327.889
329.397
329.52
328.866
329.127
330.028
329.866
329.93
329.667
330.309
330.069
330.113
329.802
329.589
329.517
329.653
329.446
329.077
329.096
329.295
329.147
330.499
330.426
330.23
330.091
330.504
330.415
330.229
330.07
330.47
330.397
330.196
330.052
329.846
329.166
330.235
330.381
330.081
329.161
329.821
330.202
330.339
329.992
329.122
329.779
330.127
330.181
329.835
330.011
329.266
329.613
328.845
330.062
329.36
329.652
328.914
330.125
329.498
329.705
329.025
329.097
328.722
329.753
329.332
330.069
329.587
330.13
329.58
329.703
329.081
329.088
328.761
329.727
329.367
330.022
329.571
330.005
329.435
329.585
328.948
329.621
329.336
329.318
329.097
328.958
328.738
328.618
328.463
329.638
329.259
329.899
329.463
328.919
328.737
328.492
328.277
328.194
328.069
327.742
327.579
329.288
328.93
328.891
328.497
329.619
329.056
329.194
328.498
329.847
329.223
329.406
328.691
329.325
328.779
328.93
328.219
328.97
328.385
328.639
327.92
328.352
327.478
327.728
326.742
328.508
327.568
327.807
326.765
328.668
327.604
327.921
326.706
328.003
326.801
328.564
327.345
328.805
327.597
328.736
327.489
327.971
326.535
328.046
326.678
328.596
327.183
328.704
327.258
328.444
326.968
327.735
326.131
328.993
327.318
325.053
321.924
328.43
326.8
324.566
321.493
329.022
327.351
325.085
321.93
328.479
326.863
324.639
321.563
329.039
327.371
325.199
322.126
328.691
327.084
324.924
321.873
328.085
326.561
324.414
321.422
327.613
326.189
324.115
321.22
328.853
327.233
325.127
322.114
328.555
326.926
325
322.294
328.957
327.29
325.253
322.365
328.635
326.965
325.057
322.424
328.611
327.057
324.924
321.887
328.412
326.836
324.903
322.189
328.3
326.832
324.748
321.799
328.21
326.699
324.797
322.134
329.189
327.483
325.293
322.265
328.956
327.238
325.223
322.493
329.149
327.445
325.284
322.276
328.897
327.181
325.184
322.484
329.054
327.354
325.266
322.34
328.815
327.103
325.134
322.473
328.871
327.175
325.197
322.436
328.704
326.996
325.078
322.49
328.621
326.928
325.058
322.523
328.387
326.675
324.76
322.66
327.634
325.945
324.016
322.02
328.382
326.669
324.761
322.669
327.625
325.934
324.008
322.012
328.354
326.642
324.736
322.644
327.594
325.902
323.978
321.995
328.313
326.603
324.72
322.635
327.555
325.861
323.947
321.971
328.243
326.539
324.692
322.625
327.487
325.793
323.894
321.927
327.944
326.298
324.488
322.464
327.26
325.609
323.755
321.801
328.113
326.43
324.596
322.549
327.402
325.721
323.841
321.881
327.738
326.142
324.355
322.352
327.05
325.449
323.63
321.708
327.51
325.979
324.23
322.253
326.799
325.269
323.495
321.602
317.918
314.965
312.647
310.901
309.659
317.691
314.804
312.515
310.786
309.556
317.912
314.959
312.643
310.899
309.657
317.688
314.802
312.516
310.789
309.559
317.922
314.956
312.641
310.899
309.658
317.792
314.889
312.594
310.86
309.624
317.634
314.77
312.499
310.781
309.555
317.577
314.741
312.485
310.774
309.551
317.889
314.935
312.629
310.891
309.653
317.687
314.705
312.423
310.709
309.489
317.888
314.904
312.594
310.858
309.622
317.67
314.676
312.393
310.681
309.462
317.824
314.897
312.603
310.872
309.637
317.605
314.646
312.379
310.674
309.458
317.776
314.871
312.591
310.866
309.634
317.532
314.595
312.343
310.647
309.435
317.908
314.904
312.585
310.844
309.607
317.664
314.647
312.356
310.642
309.424
317.891
314.887
312.571
310.833
309.597
317.653
314.637
312.349
310.636
309.418
317.851
314.845
312.535
310.803
309.571
317.619
314.607
312.325
310.616
309.401
317.742
314.732
312.438
310.718
309.495
317.539
314.541
312.271
310.57
309.361
317.57
314.58
312.308
310.605
309.393
317.817
317.392
317.751
317.318
317.602
317.158
317.364
316.934
316.985
316.625
316.028
315.583
316.466
316.076
315.632
315.143
315.253
314.755
313.051
308.933
306.067
304.16
303.021
313.127
308.965
306.065
304.149
302.995
312.998
308.899
306.046
304.146
303.011
313.06
308.92
306.042
304.127
302.982
312.888
308.832
306.003
304.118
302.991
312.953
308.855
306.002
304.101
302.963
312.717
308.727
305.938
304.074
302.959
312.797
308.761
305.943
304.062
302.934
312.471
308.579
305.845
304.012
302.912
312.594
308.64
305.867
304.011
302.896
311.879
308.21
305.607
303.851
302.793
311.959
308.255
305.624
303.849
302.779
312.181
308.404
305.733
303.937
302.856
312.304
308.471
305.761
303.941
302.845
311.585
308.012
305.475
303.761
302.725
311.62
308.03
305.476
303.751
302.707
311.288
307.807
305.336
303.665
302.653
311.293
307.799
305.324
303.647
302.628
327.324
326.794
327.533
328.097
329.687
328.971
329.692
328.897
329.114
328.304
329.122
328.406
314.714
314.886
315.307
315.978
316.898
318.037
314.701
314.865
315.266
315.898
316.741
317.757
314.372
313.895
314.562
314.105
315.025
314.616
315.772
315.455
316.789
316.556
318.003
317.732
319.308
320.583
321.769
322.84
323.704
324.313
318.878
320.015
321.093
322.05
322.817
323.339
315.299
315.53
315.486
315.169
314.581
315.477
315.711
315.668
315.348
314.755
315.914
316.155
316.113
315.786
315.179
316.611
316.864
316.823
316.486
315.856
317.567
317.838
317.8
317.449
316.788
318.751
319.045
319.012
318.646
317.948
315.285
315.516
315.473
315.156
314.57
315.455
315.69
315.648
315.328
314.736
315.872
316.114
316.073
315.747
315.142
316.528
316.782
316.742
316.407
315.78
317.405
317.675
317.638
317.291
316.636
318.462
318.753
318.721
318.36
317.673
314.944
315.17
315.127
314.816
314.241
314.45
314.669
314.628
314.325
313.767
315.141
315.371
315.328
315.014
314.432
314.669
314.892
314.85
314.545
313.979
315.622
315.859
315.817
315.495
314.898
315.198
315.43
315.389
315.075
314.492
316.397
316.647
316.607
316.273
315.651
316.069
316.315
316.276
315.949
315.337
317.454
317.723
317.685
317.336
316.679
317.213
317.48
317.444
317.1
316.452
318.717
319.011
318.978
318.612
317.916
318.437
318.728
318.697
318.338
317.651
320.077
320.4
320.376
319.995
319.257
321.41
321.769
321.758
321.367
320.591
322.657
323.056
323.067
322.673
321.864
323.794
324.237
324.276
323.887
323.052
324.718
325.201
325.264
324.881
324.028
325.367
325.871
325.944
325.56
324.692
319.63
319.947
319.923
319.55
318.827
320.819
321.166
321.153
320.77
320.012
321.95
322.329
322.332
321.943
321.154
322.957
323.369
323.389
322.997
322.182
323.766
324.205
324.239
323.846
323.01
324.314
324.767
324.807
324.409
323.558
314.792
315.119
315.699
316.536
317.632
318.959
314.777
315.095
315.653
316.444
317.449
318.621
314.451
313.975
314.8
314.349
315.427
315.029
316.348
316.051
317.55
317.342
318.98
318.758
320.415
321.825
323.051
323.995
324.52
324.61
319.874
321.088
322.151
322.963
323.442
323.562
315.378
315.61
315.566
315.247
314.657
315.717
315.953
315.909
315.584
314.982
316.318
316.563
316.518
316.182
315.56
317.186
317.444
317.398
317.048
316.397
318.322
318.598
318.553
318.184
317.496
319.699
319.998
319.953
319.563
318.83
315.364
315.596
315.552
315.234
314.644
315.693
315.93
315.886
315.561
314.961
316.271
316.516
316.472
316.137
315.517
317.091
317.349
317.304
316.956
316.309
318.133
318.408
318.363
317.999
317.318
319.35
319.645
319.603
319.22
318.499
315.025
315.252
315.209
314.896
314.318
314.533
314.753
314.711
314.407
313.845
315.387
315.619
315.575
315.255
314.665
314.92
315.145
315.103
314.792
314.217
316.036
316.277
316.233
315.902
315.29
315.624
315.86
315.816
315.493
314.895
316.991
317.246
317.201
316.854
316.21
316.683
316.935
316.89
316.549
315.915
318.237
318.512
318.466
318.098
317.413
318.021
318.293
318.248
317.885
317.207
319.721
320.019
319.974
319.583
318.849
319.49
319.786
319.741
319.354
318.628
321.212
321.538
321.498
321.086
320.305
322.681
323.038
323.006
322.577
321.751
323.965
324.358
324.342
323.904
323.042
324.967
325.4
325.408
324.975
324.09
325.544
326.016
326.054
325.637
324.747
325.667
326.165
326.228
325.831
324.949
320.653
320.973
320.935
320.534
319.772
321.919
322.266
322.236
321.821
321.02
323.032
323.409
323.391
322.968
322.136
323.888
324.295
324.295
323.872
323.019
324.403
324.837
324.855
324.439
323.576
324.541
324.992
325.026
324.62
323.759
325.759
325.326
321.964
320.408
320.423
320.023
321.389
326.795
326.337
325.846
325.001
324.08
324.667
323.145
323.081
322.341
326.686
325.736
324.139
323.898
324.797
324.447
323.389
323.156
321.827
321.719
323.062
322.967
326.19
325.469
326.275
325.212
324.853
325.732
323.518
322.165
323.882
327.176
327.75
327.858
327.534
326.78
326.49
327.047
327.155
326.793
325.918
322.821
323.177
323.141
322.707
321.874
321.203
321.528
321.485
321.071
320.29
321.22
321.545
321.504
321.091
320.309
320.803
321.12
321.077
320.669
319.9
322.222
322.565
322.525
322.097
321.283
328.102
328.599
328.648
328.255
327.469
327.599
328.058
328.074
327.657
326.834
326.923
327.408
327.443
327.006
326.078
326.152
326.562
326.547
326.115
325.243
325.038
325.451
325.438
324.988
324.093
325.669
326.107
326.111
325.666
324.761
324.058
324.446
324.423
323.979
323.111
323.996
324.388
324.37
323.931
323.068
323.221
323.593
323.567
323.134
322.293
327.995
328.506
328.565
328.178
327.385
326.798
327.277
327.307
326.866
325.937
325.096
325.509
325.494
325.041
324.143
324.842
325.246
325.227
324.774
323.882
325.791
326.226
326.226
325.773
324.859
325.422
325.846
325.84
325.387
324.482
324.312
324.706
324.685
324.239
323.363
324.064
324.447
324.419
323.971
323.1
322.682
323.037
323.003
322.573
321.745
322.566
322.917
322.879
322.447
321.622
323.968
324.35
324.323
323.877
323.01
323.867
324.245
324.215
323.768
322.904
327.563
328.105
328.194
327.844
327.066
326.585
327.108
327.184
326.788
325.888
327.486
327.989
328.058
327.664
326.816
326.257
326.734
326.769
326.34
325.427
325.857
326.303
326.313
325.867
324.955
326.802
327.291
327.333
326.904
325.979
324.445
324.84
324.818
324.369
323.488
323.03
323.39
323.354
322.916
322.077
324.826
325.23
325.212
324.76
323.869
323.257
324.122
324.555
324.564
324.162
323.232
327.713
327.659
328.615
328.649
327.584
327.451
328.545
328.421
326.678
325.577
326.669
325.7
326.559
326.588
325.884
327.797
327.727
328.694
328.745
327.63
327.478
328.597
328.436
326.697
325.579
326.679
325.703
326.556
326.59
325.868
327.834
327.745
328.728
328.8
327.619
327.436
328.597
328.401
326.707
325.349
326.671
325.486
326.514
326.529
325.661
327.562
327.458
328.443
328.531
327.298
327.061
328.283
328.04
326.373
324.911
326.329
325.041
326.147
326.141
325.232
326.986
326.874
327.832
327.929
326.692
326.403
327.658
327.393
325.794
324.404
325.743
324.495
325.554
325.498
324.671
325.918
325.807
326.713
326.812
325.634
325.37
326.537
326.279
324.83
323.61
324.787
323.684
324.614
324.566
323.85
329.969
329.959
329.39
329.409
329.909
329.837
329.332
329.229
330.305
330.497
330.277
330.466
330.24
330.16
330.375
330.062
330.033
329.469
329.506
329.955
329.851
329.384
329.254
330.415
330.535
330.362
330.476
330.28
330.165
330.359
330.11
330.056
329.504
329.564
329.94
329.799
329.381
329.206
330.392
330.322
330.316
330.265
330.182
330.05
330.15
329.813
329.738
329.208
329.286
329.589
329.399
329.055
328.845
330.017
329.777
329.921
329.72
329.741
329.574
329.609
329.162
329.077
328.572
328.66
328.899
328.659
328.406
328.171
329.297
328.981
329.191
328.93
328.99
328.792
328.84
327.972
327.884
327.414
327.504
327.707
327.489
327.244
327.011
328.104
327.914
328.005
327.855
327.829
327.66
327.764
319.909
320.121
320.513
320.856
321.229
321.6
322.047
322.381
321.666
322.049
321.012
321.379
320.468
320.792
319.978
320.209
321.653
322.191
322.281
323.02
322.691
323.358
323.319
324.185
319.451
318.632
319.661
318.872
320.047
319.239
320.402
319.605
321.378
320.713
322.037
321.182
319.962
320.61
323.024
324.185
323.793
324.682
324.036
325.089
324.928
325.744
322.091
323.241
322.805
323.704
321.276
322.372
317.68
317.009
318.047
317.322
318.276
317.428
318.758
317.939
319.123
317.995
319.997
318.87
320.749
319.595
321.705
320.487
322.267
322.54
323.251
323.451
323.672
323.955
324.559
324.837
321.963
321.976
320.917
321.075
324.117
324.222
324.925
324.875
325.365
325.585
326.128
326.227
322.868
322.743
323.716
323.387
320.674
319.34
320.497
319.105
319.646
318.365
319.625
318.244
321.58
320.215
321.24
319.825
322.443
321.041
321.859
320.428
316.233
314.964
316.011
314.81
316.76
315.518
316.34
315.161
317.58
316.556
316.868
315.863
321.008
322.555
319.576
318.523
317.318
322.146
320.515
318.781
317.694
316.497
322.878
321.42
320.022
318.7
317.363
313.812
313.065
313.411
312.775
314.419
313.56
313.835
313.143
315.489
314.496
314.578
313.753
321.507
320.448
319.76
318.499
318.126
316.904
316.899
315.753
315.383
314.353
322.372
321.471
320.75
319.484
319.267
317.926
317.824
316.47
316.06
314.759
321.947
320.566
322.989
321.721
323.593
322.845
324.602
323.974
321.312
319.853
320.332
318.799
323.879
322.608
324.514
323.284
325.429
324.807
326.06
325.487
322.197
320.71
322.811
321.35
319.453
317.899
317.258
315.59
318.65
317.013
316.672
315.02
320.175
318.665
317.791
316.152
320.85
319.306
318.44
316.864
312.502
311.901
311.221
312.506
311.995
311.338
312.886
312.21
311.481
312.81
312.251
311.538
313.639
312.838
312.02
313.269
312.594
311.791
319.176
317.82
316.469
317.103
315.896
314.721
315.63
314.535
313.494
314.645
313.652
312.669
313.67
312.842
311.901
320.211
318.614
317.031
317.743
316.166
314.698
316.174
314.726
313.41
314.95
313.693
312.507
313.765
312.764
311.685
324.519
325.096
325.059
325.825
323.695
324.375
324.284
325.155
324.139
324.887
324.288
324.964
324.587
325.232
324.856
325.438
325.747
325.216
326.173
325.52
325.597
326.042
326.447
327.17
325.859
326.617
326.144
326.9
326.704
327.377
326.344
327.07
325.692
326.409
325.546
326.144
325.966
326.655
325.972
326.54
326.283
326.98
326.655
327.203
326.943
327.334
327.554
327.772
325.695
326.135
326.453
326.911
324.832
325.195
325.648
326.024
326.972
327.519
326.276
326.816
327.16
327.575
327.851
328.153
326.403
326.732
327.127
327.348
327.621
328.126
328.276
328.658
327.381
327.77
327.851
327.945
326.802
327.304
327.228
327.424
327.931
328.193
328.395
328.398
328.521
328.645
328.871
328.793
325.4
324.788
326.238
325.655
325.534
324.886
326.361
325.754
325.732
325.151
326.554
326.012
324.986
323.921
325.632
326.206
326.777
323.52
324.547
325.065
325.632
326.299
324.264
325.328
326.106
326.606
326.911
323.896
322.751
324.759
323.635
324.058
322.946
324.944
323.862
324.396
323.314
325.297
324.276
322.971
322.004
324.068
323.059
324.649
323.629
325.161
324.129
325.812
324.828
323.866
323.172
324.952
324.239
325.705
324.919
326.159
325.255
326.43
325.411
326.028
325.516
326.81
326.427
325.041
324.554
325.913
325.579
327.334
326.787
326.638
325.979
327.433
327.146
327.998
327.755
326.611
326.361
327.217
327.021
327.913
327.453
328.433
328.011
327.558
326.822
327.468
326.551
326.937
326.09
326.985
325.99
328.08
327.444
327.891
327.058
328.539
327.931
328.295
327.546
321.26
319.83
318.525
321.79
320.155
318.828
321.527
320.065
318.72
322.08
320.422
319.026
321.954
320.494
319.104
322.551
320.792
319.285
320.782
319.38
317.949
321.797
320.325
318.832
322.345
320.795
319.259
322.771
321.196
319.67
323.062
321.182
319.523
322.067
320.45
318.765
323.085
321.408
319.666
323.643
321.868
320.058
323.809
321.955
320.129
323.533
321.531
319.693
326.511
325.645
323.925
321.183
326.179
325.274
323.529
320.806
326.677
325.768
324.029
321.252
326.48
325.506
323.722
320.964
326.889
325.916
324.223
321.504
326.996
325.929
324.135
321.356
326.959
325.791
323.887
321.072
327.206
325.91
323.923
321.091
327.387
326.23
324.432
321.643
327.324
326.08
324.399
321.86
327.039
325.986
324.36
321.777
326.947
325.814
324.26
321.878
327.677
326.416
324.474
321.574
327.657
326.314
324.525
321.903
327.977
326.61
324.592
321.689
327.954
326.522
324.667
322.035
326.44
325.648
324.06
321.452
325.966
325.269
323.898
321.601
326.495
325.67
324.096
321.504
325.996
325.265
323.898
321.625
326.571
325.688
324.151
321.625
326.113
325.308
323.93
321.678
326.607
325.65
324.169
321.773
326.224
325.339
323.967
321.765
326.575
325.545
324.115
321.893
325.257
324.645
323.4
321.664
324.473
323.919
322.653
320.991
325.352
324.693
323.434
321.7
324.569
323.963
322.676
321.005
325.53
324.785
323.49
321.74
324.742
324.045
322.721
321.042
325.784
324.923
323.589
321.82
324.976
324.165
322.791
321.092
326.108
325.105
323.708
321.905
325.244
324.302
322.868
321.14
326.72
325.461
323.892
321.999
325.92
324.7
323.117
321.306
326.419
325.281
323.795
321.946
325.584
324.499
322.99
321.224
326.993
325.631
323.985
322.054
326.235
324.894
323.238
321.401
327.261
325.808
324.106
322.151
326.53
325.085
323.365
321.5
317.496
314.716
312.498
310.807
309.59
317.287
314.563
312.37
310.694
309.488
317.529
314.733
312.508
310.814
309.596
317.341
314.596
312.393
310.712
309.503
317.584
314.757
312.523
310.824
309.604
317.502
314.717
312.491
310.795
309.577
317.432
314.651
312.428
310.736
309.522
317.501
314.696
312.458
310.757
309.539
317.627
314.781
312.537
310.834
309.611
317.457
314.572
312.344
310.66
309.452
317.579
314.724
312.487
310.791
309.573
317.395
314.517
312.299
310.622
309.419
317.643
314.79
312.54
310.832
309.609
317.449
314.556
312.325
310.64
309.433
317.713
314.834
312.569
310.853
309.624
317.477
314.564
312.324
310.635
309.427
317.47
314.65
312.434
310.75
309.539
317.219
314.393
312.207
310.548
309.356
317.478
314.647
312.428
310.743
309.532
317.226
314.392
312.203
310.544
309.352
317.481
314.63
312.408
310.723
309.513
317.229
314.384
312.192
310.533
309.341
317.413
314.542
312.325
310.647
309.444
317.196
314.345
312.154
310.497
309.308
317.269
314.407
312.205
310.54
309.346
311.447
311.135
311.653
311.331
312.025
311.657
312.521
312.067
313.066
312.503
314.021
313.398
313.558
312.933
314.447
313.862
314.863
314.339
308.864
306.33
304.412
303.056
302.201
308.876
306.335
304.401
303.042
302.177
308.96
306.378
304.438
303.072
302.212
308.967
306.375
304.426
303.052
302.186
309.144
306.471
304.491
303.104
302.235
309.144
306.465
304.476
303.082
302.207
309.4
306.606
304.567
303.151
302.269
309.378
306.589
304.546
303.125
302.238
309.707
306.778
304.668
303.215
302.314
309.639
306.734
304.631
303.178
302.276
310.369
307.187
304.924
303.383
302.439
310.27