/*--------------------------------*- C++ -*----------------------------------*\
  =========                 |
  \\      /  F ield         | OpenFOAM: The Open Source CFD Toolbox
   \\    /   O peration     | Website:  https://openfoam.org
    \\  /    A nd           | Version:  13
     \\/     M anipulation  |
\*---------------------------------------------------------------------------*/
FoamFile
{
    format      ascii;
    class       volScalarField;
    location    "539.831886";
    object      T;
}
// * * * * * * * * * * * * * * * * * * * * * * * * * * * * * * * * * * * * * //

dimensions      [0 0 0 1 0 0 0];

internalField   nonuniform List<scalar> 
5712
(
313.426
313.459
313.514
313.566
313.645
313.697
313.822
313.865
313.782
313.833
313.643
313.693
313.54
313.587
313.462
313.498
313.689
313.757
313.778
313.873
313.905
313.992
313.989
314.099
313.315
313.131
313.35
313.178
313.399
313.223
313.455
313.287
313.592
313.489
313.686
313.557
313.336
313.444
313.89
314.054
313.982
314.106
314.088
314.228
314.197
314.304
313.703
313.874
313.802
313.932
313.552
313.718
312.92
312.793
313.008
312.875
313.013
312.853
313.116
312.969
313.147
312.931
313.31
313.108
313.437
313.237
313.584
313.38
313.743
313.774
313.886
313.902
314.03
314.068
314.146
314.184
313.635
313.602
313.469
313.466
314.007
314.009
314.118
314.098
314.25
314.281
314.349
314.365
313.771
313.714
313.894
313.806
313.388
313.146
313.303
313.034
313.211
312.964
313.163
312.885
313.535
313.298
313.419
313.154
313.667
313.433
313.511
313.25
312.62
312.345
312.574
312.303
312.705
312.447
312.622
312.362
312.848
312.648
312.702
312.487
313.543
313.88
313.237
313.007
312.757
313.828
313.472
313.106
312.86
312.593
313.923
313.606
313.299
313.009
312.724
312.091
311.96
311.958
311.843
312.218
312.069
312.045
311.921
312.442
312.274
312.195
312.047
313.742
313.601
313.354
313.166
312.995
312.802
312.711
312.521
312.339
312.152
313.859
313.744
313.504
313.309
313.172
312.953
312.842
312.608
312.43
312.186
313.679
313.464
313.836
313.645
314.029
313.957
314.17
314.125
313.483
313.233
313.33
313.065
313.97
313.778
314.057
313.874
314.285
314.242
314.368
314.334
313.621
313.368
313.709
313.462
313.082
312.785
312.589
312.234
312.958
312.645
312.504
312.155
313.195
312.908
312.669
312.32
313.302
313.012
312.78
312.45
311.91
311.844
311.735
311.888
311.853
311.752
311.992
311.913
311.797
311.95
311.909
311.801
312.161
312.06
311.93
312.045
311.989
311.867
313.428
313.232
313.026
312.964
312.791
312.609
312.615
312.464
312.303
312.366
312.237
312.084
312.122
312.046
311.903
313.582
313.361
313.126
313.049
312.819
312.589
312.688
312.483
312.276
312.397
312.238
312.054
312.129
312.032
311.867
314.289
314.36
314.353
314.445
314.116
314.203
314.189
314.297
314.314
314.451
314.332
314.459
314.358
314.48
314.389
314.503
314.491
314.43
314.532
314.459
314.51
314.561
314.518
314.602
314.384
314.478
314.534
314.616
314.591
314.669
314.592
314.672
314.59
314.713
314.567
314.681
314.611
314.737
314.607
314.722
314.632
314.769
314.669
314.791
314.697
314.802
314.765
314.85
314.45
314.511
314.535
314.602
314.268
314.321
314.366
314.422
314.652
314.732
314.578
314.652
314.616
314.68
314.697
314.749
314.458
314.509
314.546
314.586
314.724
314.801
314.799
314.863
314.75
314.854
314.816
314.875
314.689
314.803
314.746
314.816
314.809
314.899
314.877
314.926
314.874
314.948
314.931
314.97
314.579
314.512
314.698
314.629
314.583
314.512
314.708
314.637
314.589
314.526
314.724
314.66
314.384
314.168
314.52
314.629
314.743
314.119
314.333
314.458
314.565
314.687
314.212
314.423
314.575
314.677
314.758
314.4
314.248
314.517
314.369
314.411
314.265
314.535
314.394
314.436
314.298
314.572
314.439
314.055
313.936
314.282
314.16
314.411
314.286
314.511
314.384
314.627
314.502
314.17
314.097
314.387
314.313
314.535
314.448
314.629
314.524
314.7
314.572
314.519
314.487
314.612
314.603
314.322
314.296
314.432
314.436
314.726
314.688
314.646
314.588
314.684
314.694
314.752
314.769
314.518
314.54
314.594
314.624
314.791
314.769
314.853
314.836
314.795
314.724
314.822
314.717
314.722
314.634
314.766
314.647
314.855
314.8
314.872
314.779
314.906
314.857
314.916
314.836
314.043
313.839
313.648
314.116
313.886
313.694
314.072
313.866
313.67
314.151
313.919
313.719
314.116
313.913
313.714
314.207
313.964
313.749
313.777
313.581
313.371
313.997
313.794
313.579
314.121
313.908
313.689
314.209
313.996
313.783
314.268
314.011
313.778
313.967
313.753
313.514
314.177
313.958
313.717
314.294
314.062
313.813
314.344
314.1
313.849
314.327
314.057
313.8
314.76
314.666
314.431
314.008
314.721
314.621
314.378
313.952
314.777
314.679
314.444
314.016
314.753
314.645
314.401
313.973
314.8
314.696
314.47
314.055
314.81
314.695
314.453
314.029
314.804
314.676
314.418
313.983
314.83
314.687
314.418
313.981
314.853
314.73
314.494
314.073
314.846
314.714
314.497
314.118
314.815
314.705
314.491
314.1
314.803
314.685
314.483
314.126
314.885
314.749
314.494
314.058
314.883
314.74
314.51
314.121
314.916
314.769
314.505
314.07
314.915
314.762
314.525
314.138
314.752
314.668
314.454
314.056
314.697
314.625
314.442
314.093
314.757
314.67
314.459
314.063
314.699
314.624
314.442
314.097
314.764
314.672
314.468
314.083
314.711
314.629
314.446
314.105
314.767
314.667
314.473
314.11
314.722
314.632
314.451
314.119
314.761
314.654
314.468
314.135
314.611
314.551
314.386
314.135
314.516
314.462
314.294
314.058
314.622
314.557
314.39
314.14
314.527
314.468
314.297
314.06
314.642
314.567
314.396
314.144
314.547
314.477
314.302
314.065
314.67
314.583
314.408
314.155
314.574
314.491
314.31
314.071
314.707
314.603
314.422
314.166
314.605
314.507
314.319
314.077
314.777
314.643
314.442
314.175
314.684
314.553
314.348
314.097
314.742
314.623
314.431
314.17
314.645
314.529
314.333
314.087
314.808
314.662
314.451
314.18
314.721
314.575
314.361
314.107
314.838
314.681
314.464
314.191
314.755
314.596
314.376
314.119
313.372
312.863
312.431
312.083
311.816
313.34
312.837
312.407
312.059
311.793
313.376
312.865
312.433
312.084
311.817
313.346
312.841
312.41
312.061
311.795
313.383
312.868
312.435
312.085
311.819
313.369
312.86
312.428
312.079
311.812
313.357
312.847
312.415
312.065
311.798
313.365
312.853
312.419
312.069
311.801
313.388
312.871
312.437
312.087
311.82
313.362
312.833
312.398
312.049
311.782
313.382
312.862
312.427
312.078
311.811
313.353
312.825
312.39
312.041
311.775
313.389
312.871
312.436
312.086
311.818
313.359
312.83
312.394
312.044
311.777
313.397
312.877
312.44
312.089
311.821
313.362
312.829
312.392
312.042
311.775
313.368
312.851
312.419
312.07
311.804
313.33
312.806
312.374
312.026
311.761
313.369
312.85
312.417
312.069
311.802
313.331
312.806
312.373
312.026
311.76
313.369
312.846
312.413
312.064
311.798
313.331
312.804
312.371
312.023
311.757
313.358
312.83
312.396
312.047
311.781
313.325
312.796
312.363
312.015
311.749
313.335
312.806
312.372
312.023
311.758
311.398
311.321
311.435
311.356
311.502
311.414
311.588
311.484
311.675
311.554
311.816
311.677
311.745
311.609
311.885
311.752
311.956
311.835
310.577
309.687
308.947
308.376
307.99
310.589
309.693
308.945
308.371
307.979
310.594
309.696
308.952
308.38
307.994
310.604
309.7
308.95
308.373
307.981
310.627
309.714
308.964
308.389
308.001
310.637
309.718
308.962
308.381
307.988
310.673
309.741
308.982
308.402
308.012
310.678
309.742
308.978
308.393
307.998
310.726
309.775
309.005
308.419
308.026
310.724
309.771
308.998
308.408
308.011
310.842
309.859
309.066
308.467
308.068
310.829
309.847
309.053
308.451
308.049
310.784
309.816
309.034
308.441
308.045
310.774
309.806
309.022
308.426
308.027
310.899
309.902
309.1
308.493
308.091
310.891
309.894
309.089
308.48
308.075
310.957
309.947
309.134
308.521
308.116
310.957
309.943
309.128
308.512
308.102
314.508
314.385
314.268
314.409
314.201
314.222
314.231
314.26
314.192
314.231
314.027
314.072
313.936
313.987
314.059
314.102
314.106
314.136
314.113
314.136
314.392
314.412
313.975
313.809
313.764
313.744
313.895
314.025
313.843
314.04
313.681
313.445
313.981
313.925
313.74
313.926
313.849
313.828
314.172
314.166
314.052
314.083
314.137
314.17
314.117
314.058
313.853
313.887
313.973
314.007
314.325
314.359
314.279
314.304
314.238
314.235
314.105
313.961
314.111
314.622
314.738
314.785
314.773
314.702
314.586
314.683
314.724
314.702
314.611
314.094
314.148
314.153
314.103
313.999
313.923
313.973
313.973
313.921
313.816
313.879
313.931
313.933
313.883
313.778
313.858
313.908
313.908
313.856
313.751
314.012
314.065
314.068
314.018
313.914
314.276
314.426
314.503
314.514
314.463
314.109
314.27
314.352
314.364
314.305
314.22
314.334
314.392
314.384
314.301
313.927
314.082
314.156
314.161
314.089
313.684
313.841
313.917
313.922
313.851
314.126
314.208
314.239
314.21
314.116
314.091
314.194
314.243
314.228
314.141
313.9
313.999
314.045
314.027
313.94
314.061
314.134
314.156
314.121
314.024
313.992
314.073
314.103
314.073
313.979
313.96
314.03
314.05
314.014
313.917
314.403
314.53
314.593
314.594
314.533
314.327
314.423
314.466
314.446
314.357
314.19
314.265
314.29
314.256
314.159
314.215
314.284
314.302
314.264
314.164
314.279
314.358
314.386
314.354
314.258
314.305
314.376
314.396
314.359
314.26
314.243
314.305
314.316
314.272
314.169
314.183
314.244
314.255
314.211
314.108
313.976
314.036
314.046
314.002
313.9
314.006
314.063
314.069
314.022
313.918
314.102
314.168
314.184
314.145
314.045
314.133
314.195
314.207
314.164
314.062
314.549
314.668
314.719
314.712
314.645
314.522
314.615
314.652
314.628
314.536
314.466
314.573
314.622
314.611
314.535
314.45
314.531
314.56
314.529
314.433
314.377
314.452
314.475
314.44
314.342
314.393
314.485
314.525
314.504
314.413
314.232
314.295
314.308
314.265
314.163
314.081
314.138
314.145
314.097
313.994
314.242
314.309
314.325
314.285
314.184
314.461
314.386
314.455
314.372
314.626
314.539
314.629
314.552
314.448
314.439
314.369
314.385
314.623
314.618
314.543
314.566
314.285
314.113
314.218
314.052
314.284
314.128
314.205
314.052
314.203
314.273
314.241
314.288
314.152
314.081
314.271
314.188
314.309
314.218
314.44
314.353
314.491
314.406
314.109
314.02
314.162
314.06
313.984
313.878
313.953
313.813
313.9
313.767
313.965
313.799
313.897
313.75
313.995
313.771
313.947
313.748
313.857
313.653
313.736
313.529
314.384
314.338
314.346
314.295
314.601
314.584
314.561
314.546
314.14
314.014
314.174
314.059
314.286
314.242
314.209
314.176
314.502
314.497
314.431
314.437
314.078
313.958
313.995
313.887
313.924
313.678
313.722
313.447
313.949
313.684
313.761
313.472
313.864
313.628
313.668
313.401
313.776
313.543
313.594
313.332
313.946
313.871
313.792
313.672
313.96
313.898
313.77
313.655
313.984
313.951
313.731
313.635
314.394
314.617
314.175
313.939
313.638
314.625
314.413
314.194
313.946
313.588
314.604
314.364
314.087
313.785
313.472
313.744
313.683
313.349
313.23
313.804
313.743
313.372
313.253
313.892
313.842
313.399
313.28
314.619
314.584
314.394
314.353
314.157
314.116
313.872
313.82
313.361
313.234
314.602
314.565
314.338
314.256
314.038
313.935
313.69
313.569
313.224
313.071
314.273
314.132
314.233
314.089
314.573
314.554
314.538
314.525
313.895
313.692
313.943
313.75
314.197
314.032
314.132
313.956
314.497
314.474
314.438
314.409
313.859
313.632
313.787
313.546
313.491
313.233
312.981
312.659
313.562
313.311
313.076
312.774
313.436
313.169
312.899
312.568
313.384
313.098
312.853
312.527
313.655
313.599
313.297
313.284
313.713
313.651
313.312
313.303
313.799
313.711
313.325
313.311
314.512
314.385
314.275
314.156
314.048
313.945
313.763
313.666
313.296
313.286
314.491
314.354
314.141
314.015
313.833
313.737
313.522
313.473
313.2
313.211
314.897
314.901
314.819
314.851
314.776
314.779
314.694
314.727
314.981
315.039
314.907
314.968
314.979
315.033
314.899
314.957
314.911
314.98
314.922
314.973
315.02
314.955
314.779
314.693
314.656
314.573
314.817
314.72
314.848
314.761
314.864
314.774
315.072
315.088
315.002
315.022
315.072
315.094
314.998
315.026
315.069
315.1
315.013
315.053
314.931
314.979
314.85
314.914
314.921
314.923
314.884
314.896
314.782
314.783
314.744
314.75
314.977
314.994
315.01
315.015
314.831
314.858
314.768
314.809
314.688
314.706
314.621
314.652
314.926
314.96
314.866
314.916
315.041
315.079
315.046
315.063
315.071
315.099
315.064
315.075
314.993
315.042
315.017
315.04
314.936
314.997
314.979
315.009
315.103
315.092
315.114
315.096
315.098
315.086
315.113
315.093
315.085
315.075
315.109
315.09
314.934
314.798
315.022
315.078
315.097
314.797
314.928
315.014
315.069
315.085
314.8
314.934
315.022
315.069
315.076
315.044
314.959
315.038
314.947
315.045
314.965
315.042
314.955
315.044
314.974
315.048
314.968
314.796
314.761
314.926
314.884
315.004
314.952
315.05
314.989
315.052
314.979
314.806
314.789
314.938
314.915
315.018
314.98
315.054
314.999
315.047
314.974
314.939
314.938
314.907
314.92
314.801
314.812
314.764
314.792
314.99
314.975
315.016
314.99
314.859
314.882
314.81
314.83
314.713
314.75
314.659
314.693
314.949
314.941
314.905
314.893
315.027
314.981
315.015
314.941
315.047
314.993
315.034
314.957
314.995
314.953
314.988
314.913
314.955
314.909
314.955
314.879
314.855
314.757
314.815
314.701
314.869
314.764
314.825
314.704
314.881
314.765
314.84
314.699
314.689
314.561
314.804
314.673
314.868
314.736
314.897
314.761
314.85
314.684
314.728
314.58
314.844
314.69
314.893
314.732
314.891
314.724
314.831
314.644
315.02
314.841
314.551
314.088
314.96
314.782
314.489
314.027
315.024
314.846
314.556
314.091
314.966
314.79
314.499
314.039
315.026
314.85
314.574
314.123
314.99
314.817
314.538
314.086
314.924
314.758
314.474
314.022
314.873
314.717
314.439
313.995
315.009
314.836
314.568
314.125
314.978
314.805
314.562
314.166
315.019
314.843
314.586
314.165
314.985
314.808
314.569
314.186
314.983
314.817
314.542
314.092
314.964
314.796
314.551
314.153
314.951
314.793
314.522
314.082
314.942
314.781
314.539
314.149
315.04
314.861
314.585
314.144
315.013
314.835
314.585
314.192
315.036
314.857
314.586
314.148
315.007
314.828
314.581
314.192
315.027
314.848
314.587
314.161
314.999
314.82
314.576
314.193
315.008
314.83
314.583
314.183
314.988
314.809
314.571
314.199
314.982
314.803
314.57
314.205
314.949
314.771
314.535
314.248
314.865
314.687
314.447
314.179
314.949
314.771
314.536
314.249
314.865
314.686
314.447
314.178
314.947
314.768
314.533
314.246
314.863
314.683
314.443
314.176
314.945
314.765
314.532
314.247
314.86
314.679
314.44
314.173
314.94
314.759
314.53
314.247
314.855
314.672
314.434
314.169
314.911
314.734
314.507
314.228
314.834
314.654
314.42
314.154
314.928
314.748
314.519
314.238
314.848
314.666
314.429
314.164
314.889
314.717
314.492
314.213
314.812
314.637
314.406
314.143
314.865
314.7
314.478
314.202
314.785
314.617
314.39
314.13
313.42
312.892
312.45
312.095
311.826
313.385
312.865
312.424
312.071
311.802
313.42
312.891
312.449
312.095
311.826
313.386
312.865
312.425
312.072
311.803
313.422
312.891
312.449
312.095
311.826
313.402
312.881
312.441
312.087
311.819
313.38
312.862
312.424
312.071
311.803
313.374
312.859
312.422
312.071
311.803
313.418
312.889
312.448
312.094
311.825
313.388
312.849
312.408
312.055
311.787
313.417
312.883
312.441
312.087
311.818
313.385
312.843
312.402
312.049
311.781
313.41
312.884
312.444
312.091
311.823
313.377
312.84
312.4
312.048
311.781
313.405
312.881
312.443
312.091
311.823
313.368
312.833
312.395
312.043
311.776
313.418
312.881
312.437
312.083
311.814
313.381
312.836
312.393
312.039
311.771
313.416
312.878
312.435
312.08
311.811
313.38
312.835
312.391
312.038
311.77
313.411
312.872
312.428
312.074
311.806
313.376
312.83
312.387
312.034
311.766
313.395
312.853
312.41
312.056
311.788
313.364
312.819
312.377
312.024
311.757
313.369
312.827
312.385
312.032
311.764
312.522
312.432
312.51
312.418
312.48
312.386
312.434
312.342
312.359
312.28
312.168
312.065
312.254
312.164
312.093
311.979
312.025
311.909
311.388
310.258
309.366
308.703
308.272
311.413
310.271
309.367
308.7
308.261
311.376
310.25
309.36
308.699
308.268
311.398
310.26
309.361
308.693
308.256
311.353
310.234
309.349
308.69
308.261
311.375
310.244
309.35
308.685
308.249
311.316
310.209
309.331
308.677
308.249
311.341
310.222
309.334
308.673
308.239
311.264
310.174
309.306
308.657
308.232
311.297
310.193
309.314
308.657
308.225
311.138
310.087
309.242
308.607
308.19
311.16
310.101
309.247
308.606
308.183
311.202
310.133
309.276
308.634
308.212
311.234
310.153
309.285
308.635
308.207
311.076
310.041
309.207
308.579
308.166
311.088
310.047
309.208
308.575
308.158
311.016
309.993
309.17
308.55
308.141
311.022
309.994
309.168
308.543
308.13
314.617
314.501
314.593
314.715
314.895
314.82
314.896
314.81
314.775
314.686
314.776
314.699
313.202
313.226
313.284
313.378
313.504
313.657
313.194
313.217
313.273
313.36
313.476
313.612
313.144
313.059
313.171
313.089
313.237
313.164
313.343
313.285
313.485
313.441
313.65
313.603
313.822
313.979
314.116
314.231
314.318
314.381
313.758
313.901
314.03
314.14
314.225
314.285
313.306
313.347
313.34
313.284
313.18
313.33
313.372
313.365
313.309
313.204
313.39
313.432
313.425
313.37
313.265
313.484
313.528
313.522
313.466
313.361
313.613
313.657
313.652
313.598
313.492
313.768
313.815
313.812
313.758
313.652
313.298
313.34
313.332
313.277
313.172
313.321
313.363
313.356
313.3
313.196
313.378
313.42
313.414
313.358
313.254
313.467
313.51
313.505
313.449
313.345
313.584
313.629
313.625
313.57
313.465
313.723
313.77
313.767
313.714
313.609
313.248
313.289
313.282
313.226
313.122
313.162
313.203
313.195
313.14
313.036
313.275
313.316
313.309
313.253
313.149
313.193
313.234
313.227
313.171
313.068
313.342
313.384
313.377
313.321
313.217
313.268
313.31
313.303
313.248
313.144
313.449
313.492
313.486
313.43
313.326
313.391
313.434
313.428
313.373
313.269
313.593
313.637
313.633
313.578
313.473
313.549
313.594
313.59
313.535
313.43
313.761
313.808
313.805
313.751
313.646
313.714
313.761
313.759
313.705
313.6
313.936
313.986
313.986
313.934
313.829
314.098
314.153
314.157
314.108
314.003
314.241
314.302
314.312
314.267
314.164
314.364
314.433
314.45
314.41
314.309
314.46
314.537
314.561
314.526
314.428
314.53
314.611
314.638
314.606
314.508
313.872
313.922
313.922
313.87
313.765
314.019
314.072
314.076
314.027
313.922
314.153
314.211
314.219
314.173
314.07
314.268
314.332
314.345
314.302
314.2
314.358
314.427
314.444
314.404
314.303
314.421
314.492
314.511
314.473
314.372
313.214
313.261
313.344
313.461
313.612
313.79
313.206
313.252
313.331
313.442
313.581
313.738
313.156
313.072
313.208
313.128
313.299
313.229
313.43
313.377
313.598
313.56
313.792
313.755
313.978
314.151
314.29
314.385
314.426
314.42
313.901
314.052
314.177
314.265
314.31
314.315
313.318
313.359
313.352
313.296
313.191
313.366
313.407
313.4
313.344
313.239
313.449
313.491
313.484
313.428
313.323
313.568
313.611
313.604
313.548
313.442
313.72
313.764
313.759
313.703
313.596
313.9
313.946
313.942
313.886
313.779
313.31
313.351
313.344
313.288
313.184
313.357
313.398
313.391
313.335
313.23
313.437
313.479
313.472
313.416
313.311
313.549
313.592
313.586
313.53
313.424
313.689
313.733
313.728
313.672
313.566
313.848
313.894
313.89
313.835
313.728
313.26
313.301
313.294
313.238
313.134
313.175
313.216
313.208
313.153
313.049
313.312
313.353
313.346
313.29
313.185
313.232
313.272
313.265
313.209
313.105
313.404
313.445
313.438
313.382
313.277
313.333
313.375
313.367
313.312
313.207
313.536
313.579
313.572
313.516
313.41
313.483
313.526
313.519
313.463
313.358
313.706
313.749
313.744
313.688
313.581
313.668
313.712
313.706
313.65
313.544
313.902
313.948
313.943
313.888
313.78
313.865
313.911
313.906
313.851
313.744
314.091
314.14
314.137
314.083
313.975
314.268
314.32
314.321
314.269
314.161
314.413
314.47
314.476
314.427
314.321
314.515
314.58
314.593
314.549
314.445
314.566
314.639
314.659
314.621
314.52
314.568
314.647
314.673
314.639
314.541
314.014
314.062
314.06
314.006
313.899
314.169
314.22
314.221
314.169
314.063
314.298
314.354
314.359
314.31
314.204
314.391
314.453
314.463
314.417
314.312
314.442
314.509
314.524
314.481
314.379
314.451
314.521
314.539
314.5
314.399
314.459
314.465
314.172
313.979
313.973
313.925
314.1
314.577
314.524
314.537
314.394
314.385
314.421
314.286
314.267
314.19
314.583
314.55
314.403
314.385
314.473
314.445
314.334
314.309
314.142
314.136
314.287
314.284
314.522
314.505
314.574
314.507
314.483
314.551
314.349
314.193
314.386
314.686
314.796
314.839
314.823
314.749
314.637
314.731
314.769
314.745
314.652
314.289
314.34
314.34
314.287
314.18
314.092
314.14
314.137
314.082
313.974
314.087
314.136
314.134
314.079
313.972
314.038
314.085
314.082
314.027
313.919
314.216
314.266
314.265
314.211
314.103
314.778
314.877
314.914
314.892
314.817
314.72
314.814
314.846
314.82
314.738
314.688
314.769
314.795
314.762
314.663
314.569
314.653
314.678
314.645
314.552
314.514
314.577
314.588
314.543
314.439
314.56
314.632
314.65
314.611
314.509
314.41
314.469
314.476
314.428
314.322
314.393
314.454
314.463
314.417
314.312
314.312
314.369
314.374
314.325
314.219
314.781
314.879
314.914
314.892
314.814
314.694
314.77
314.793
314.756
314.655
314.53
314.592
314.601
314.555
314.449
314.51
314.569
314.576
314.528
314.422
314.605
314.67
314.683
314.639
314.535
314.573
314.636
314.646
314.6
314.494
314.457
314.514
314.519
314.469
314.362
314.43
314.485
314.489
314.438
314.331
314.26
314.313
314.315
314.263
314.156
314.253
314.304
314.305
314.252
314.144
314.409
314.465
314.47
314.421
314.314
314.404
314.459
314.462
314.412
314.304
314.736
314.839
314.878
314.859
314.782
314.663
314.749
314.779
314.749
314.652
314.747
314.835
314.868
314.842
314.755
314.648
314.721
314.742
314.704
314.602
314.616
314.682
314.697
314.653
314.55
314.697
314.774
314.798
314.763
314.663
314.472
314.529
314.534
314.484
314.377
314.311
314.363
314.364
314.311
314.203
314.511
314.57
314.577
314.528
314.422
314.329
314.433
314.476
314.463
314.399
314.269
314.486
314.478
314.654
314.658
314.469
314.453
314.648
314.638
314.303
314.112
314.302
314.13
314.284
314.292
314.162
314.492
314.483
314.662
314.667
314.473
314.456
314.654
314.64
314.295
314.094
314.294
314.117
314.276
314.289
314.15
314.491
314.481
314.664
314.671
314.469
314.451
314.654
314.639
314.287
314.044
314.285
314.073
314.267
314.281
314.112
314.455
314.444
314.632
314.639
314.432
314.41
314.62
314.603
314.238
313.981
314.238
314.012
314.222
314.237
314.058
314.389
314.379
314.564
314.572
314.366
314.34
314.553
314.535
314.171
313.93
314.172
313.954
314.158
314.168
314
314.27
314.26
314.441
314.449
314.249
314.228
314.43
314.414
314.065
313.844
314.068
313.866
314.056
314.067
313.912
314.924
314.925
314.805
314.806
314.921
314.917
314.8
314.794
315.009
315.072
315.004
315.062
315.002
314.99
315.042
314.934
314.932
314.813
314.816
314.926
314.919
314.806
314.799
315.022
315.073
315.015
315.06
315.007
314.991
315.039
314.938
314.935
314.816
314.821
314.925
314.915
314.807
314.796
315.017
315.047
315.007
315.036
314.995
314.978
315.015
314.905
314.9
314.784
314.789
314.888
314.874
314.773
314.761
314.975
314.986
314.964
314.975
314.947
314.927
314.956
314.834
314.828
314.715
314.721
314.813
314.795
314.704
314.69
314.896
314.896
314.884
314.888
314.865
314.842
314.872
314.704
314.698
314.588
314.594
314.683
314.667
314.577
314.563
314.765
314.778
314.754
314.769
314.737
314.718
314.753
313.42
313.452
313.513
313.565
313.644
313.696
313.821
313.865
313.782
313.832
313.642
313.692
313.539
313.586
313.454
313.489
313.688
313.756
313.778
313.872
313.905
313.992
313.988
314.099
313.31
313.128
313.344
313.173
313.398
313.222
313.454
313.287
313.591
313.489
313.686
313.556
313.335
313.443
313.889
314.054
313.982
314.105
314.087
314.228
314.197
314.304
313.702
313.873
313.801
313.931
313.552
313.718
312.917
312.79
313.003
312.871
313.012
312.852
313.116
312.969
313.147
312.931
313.309
313.107
313.437
313.237
313.584
313.38
313.743
313.774
313.886
313.902
314.03
314.068
314.145
314.183
313.634
313.601
313.469
313.466
314.007
314.009
314.118
314.098
314.25
314.281
314.349
314.365
313.771
313.714
313.894
313.806
313.387
313.145
313.303
313.034
313.21
312.964
313.163
312.884
313.535
313.298
313.419
313.154
313.666
313.432
313.511
313.25
312.616
312.341
312.572
312.3
312.705
312.447
312.621
312.361
312.848
312.648
312.702
312.487
313.543
313.88
313.237
313.006
312.756
313.828
313.472
313.106
312.86
312.592
313.923
313.605
313.299
313.009
312.724
312.087
311.957
311.956
311.841
312.218
312.069
312.045
311.921
312.442
312.274
312.195
312.047
313.742
313.601
313.354
313.166
312.995
312.802
312.711
312.521
312.339
312.152
313.859
313.743
313.504
313.309
313.171
312.952
312.842
312.608
312.43
312.186
313.679
313.464
313.836
313.644
314.029
313.957
314.17
314.125
313.482
313.233
313.33
313.065
313.969
313.777
314.057
313.874
314.285
314.242
314.368
314.334
313.621
313.367
313.709
313.462
313.081
312.785
312.588
312.234
312.958
312.645
312.504
312.155
313.195
312.908
312.669
312.32
313.302
313.012
312.779
312.449
311.907
311.841
311.733
311.886
311.851
311.751
311.992
311.913
311.797
311.95
311.909
311.801
312.161
312.06
311.93
312.045
311.988
311.866
313.428
313.232
313.026
312.964
312.791
312.609
312.615
312.464
312.303
312.366
312.237
312.083
312.122
312.046
311.903
313.581
313.361
313.126
313.048
312.819
312.589
312.688
312.483
312.276
312.397
312.238
312.054
312.129
312.032
311.866
314.289
314.36
314.353
314.445
314.116
314.203
314.189
314.297
314.311
314.449
314.328
314.456
314.357
314.48
314.389
314.503
314.491
314.429
314.531
314.458
314.509
314.561
314.518
314.602
314.384
314.478
314.534
314.616
314.591
314.668
314.592
314.672
314.588
314.712
314.564
314.679
314.611
314.737
314.607
314.722
314.632
314.769
314.669
314.791
314.697
314.802
314.765
314.85
314.45
314.511
314.535
314.602
314.268
314.32
314.366
314.422
314.652
314.732
314.577
314.651
314.616
314.68
314.697
314.749
314.457
314.509
314.546
314.586
314.724
314.801
314.799
314.863
314.75
314.854
314.816
314.875
314.689
314.803
314.746
314.816
314.809
314.899
314.877
314.926
314.874
314.948
314.931
314.97
314.578
314.511
314.697
314.629
314.583
314.512
314.708
314.637
314.589
314.525
314.724
314.66
314.384
314.167
314.52
314.628
314.743
314.119
314.333
314.458
314.565
314.687
314.211
314.423
314.575
314.677
314.758
314.4
314.247
314.517
314.369
314.41
314.265
314.535
314.393
314.436
314.298
314.571
314.439
314.055
313.936
314.282
314.16
314.411
314.286
314.511
314.384
314.627
314.501
314.17
314.097
314.387
314.313
314.534
314.448
314.629
314.524
314.699
314.572
314.519
314.487
314.612
314.603
314.322
314.296
314.432
314.436
314.726
314.688
314.646
314.588
314.684
314.693
314.752
314.768
314.518
314.54
314.594
314.624
314.791
314.769
314.853
314.836
314.795
314.724
314.822
314.717
314.722
314.634
314.765
314.647
314.855
314.8
314.872
314.779
314.906
314.857
314.916
314.835
314.042
313.838
313.647
314.116
313.886
313.694
314.072
313.866
313.67
314.151
313.919
313.718
314.116
313.913
313.714
314.207
313.963
313.749
313.777
313.581
313.371
313.997
313.794
313.579
314.121
313.908
313.689
314.209
313.996
313.783
314.268
314.011
313.777
313.967
313.753
313.514
314.177
313.958
313.717
314.294
314.061
313.813
314.344
314.1
313.849
314.327
314.057
313.8
314.759
314.665
314.43
314.007
314.719
314.619
314.377
313.951
314.777
314.679
314.444
314.016
314.753
314.645
314.401
313.973
314.8
314.696
314.47
314.055
314.81
314.695
314.453
314.029
314.804
314.676
314.418
313.983
314.83
314.687
314.418
313.981
314.853
314.73
314.494
314.073
314.846
314.714
314.497
314.118
314.815
314.705
314.491
314.1
314.803
314.685
314.483
314.126
314.885
314.749
314.494
314.058
314.883
314.74
314.51
314.121
314.916
314.769
314.505
314.07
314.915
314.762
314.525
314.138
314.752
314.668
314.454
314.055
314.697
314.625
314.442
314.093
314.757
314.67
314.459
314.063
314.699
314.624
314.442
314.097
314.764
314.672
314.468
314.083
314.711
314.628
314.446
314.105
314.767
314.667
314.472
314.11
314.722
314.632
314.451
314.119
314.761
314.654
314.468
314.135
314.612
314.551
314.386
314.135
314.517
314.463
314.294
314.059
314.622
314.557
314.39
314.14
314.527
314.468
314.297
314.06
314.642
314.567
314.396
314.144
314.547
314.477
314.302
314.065
314.67
314.582
314.408
314.155
314.574
314.491
314.31
314.071
314.707
314.603
314.422
314.166
314.605
314.507
314.319
314.077
314.777
314.643
314.442
314.175
314.684
314.553
314.348
314.097
314.742
314.623
314.431
314.17
314.644
314.529
314.333
314.087
314.808
314.662
314.451
314.18
314.721
314.575
314.361
314.107
314.837
314.681
314.464
314.191
314.754
314.596
314.376
314.119
313.372
312.863
312.431
312.083
311.816
313.339
312.836
312.406
312.058
311.792
313.376
312.865
312.433
312.084
311.817
313.346
312.841
312.41
312.062
311.795
313.383
312.868
312.435
312.085
311.819
313.37
312.861
312.428
312.079
311.812
313.357
312.847
312.415
312.065
311.799
313.365
312.853
312.419
312.069
311.802
313.388
312.871
312.437
312.087
311.82
313.362
312.833
312.398
312.049
311.782
313.382
312.862
312.427
312.078
311.811
313.354
312.825
312.39
312.041
311.775
313.389
312.871
312.436
312.086
311.819
313.359
312.83
312.394
312.044
311.777
313.397
312.877
312.44
312.089
311.821
313.362
312.829
312.392
312.042
311.775
313.369
312.851
312.419
312.07
311.804
313.331
312.806
312.374
312.027
311.761
313.369
312.85
312.417
312.069
311.802
313.331
312.806
312.373
312.026
311.76
313.369
312.846
312.413
312.064
311.798
313.331
312.804
312.371
312.023
311.757
313.358
312.83
312.396
312.047
311.781
313.325
312.796
312.363
312.015
311.749
313.335
312.806
312.372
312.023
311.758
311.397
311.319
311.435
311.356
311.502
311.414
311.588
311.484
311.675
311.554
311.816
311.677
311.745
311.608
311.885
311.752
311.956
311.835
310.576
309.686
308.946
308.376
307.99
310.588
309.693
308.945
308.371
307.979
310.593
309.696
308.952
308.38
307.994
310.604
309.7
308.95
308.373
307.981
310.627
309.714
308.964
308.389
308.001
310.636
309.718
308.962
308.381
307.988
310.673
309.741
308.982
308.402
308.012
310.678
309.742
308.978
308.393
307.998
310.726
309.775
309.005
308.419
308.026
310.724
309.771
308.998
308.408
308.011
310.842
309.859
309.066