/*--------------------------------*- C++ -*----------------------------------*\
  =========                 |
  \\      /  F ield         | OpenFOAM: The Open Source CFD Toolbox
   \\    /   O peration     | Website:  https://openfoam.org
    \\  /    A nd           | Version:  13
     \\/     M anipulation  |
\*---------------------------------------------------------------------------*/
FoamFile
{
    format      ascii;
    class       volScalarField;
    location    "29.831886";
    object      T;
}
// * * * * * * * * * * * * * * * * * * * * * * * * * * * * * * * * * * * * * //

dimensions      [0 0 0 1 0 0 0];

internalField   nonuniform List<scalar> 
5712
(
543.979
543.437
542.548
541.716
540.434
539.585
537.551
536.856
538.183
537.373
540.45
539.635
542.121
541.356
543.391
542.81
539.737
538.654
538.286
536.787
536.221
534.838
534.883
533.12
545.801
548.835
545.223
548.061
544.443
547.344
543.541
546.285
541.332
542.997
539.82
541.922
545.515
543.749
536.502
533.86
535.034
533.06
533.297
531.057
531.564
529.863
539.54
536.793
537.957
535.871
541.989
539.322
552.329
554.444
550.878
553.081
550.822
553.474
549.105
551.549
548.629
552.205
545.958
549.285
543.887
547.177
541.509
544.853
538.907
538.428
536.605
536.376
534.237
533.634
532.393
531.797
540.693
541.3
543.387
543.479
534.655
534.673
532.89
533.256
530.73
530.252
529.167
528.931
538.485
539.493
536.521
538.027
544.736
548.735
546.232
550.724
547.633
551.725
548.507
553.171
542.34
546.231
544.361
548.767
540.213
544.048
542.881
547.219
557.335
561.943
558.097
562.66
555.939
560.237
557.327
561.685
553.587
556.9
556.021
559.613
542.162
536.646
547.194
550.995
555.176
537.482
543.321
549.341
553.398
557.902
535.958
541.149
546.2
551.02
555.801
566.205
568.337
568.488
570.37
564.059
566.508
567.035
569.068
560.321
563.07
564.538
566.96
538.852
541.107
545.235
548.279
551.148
554.296
555.869
558.972
562.188
565.279
536.979
538.808
542.801
545.946
548.286
551.86
553.787
557.64
560.793
564.837
539.978
543.493
537.465
540.591
534.259
535.364
532.006
532.686
543.298
547.423
545.753
550.133
535.334
538.468
533.944
536.937
530.191
530.847
528.878
529.397
541.068
545.267
539.665
543.767
549.992
554.972
558.346
564.367
551.978
557.208
559.681
565.594
548.165
552.985
557.069
562.991
546.439
551.307
555.258
560.866
569.084
570.134
571.998
569.461
569.973
571.686
567.708
568.979
570.953
568.417
569.022
570.865
564.876
566.513
568.707
566.835
567.699
569.763
543.883
547.045
550.424
551.55
554.348
557.364
557.328
559.769
562.456
561.459
563.533
566.111
565.593
566.76
569.174
541.388
544.94
548.764
550.168
553.892
557.703
556.151
559.471
562.916
561.008
563.557
566.633
565.562
567.053
569.836
530.036
528.913
529.025
527.575
532.816
531.434
531.657
529.941
529.638
527.48
529.356
527.353
528.948
527.027
528.454
526.662
526.842
527.811
526.204
527.349
526.555
525.754
526.427
525.092
528.556
527.078
526.163
524.869
525.262
524.047
525.257
523.996
525.313
523.439
525.673
523.942
524.976
523.063
525.049
523.311
524.629
522.558
524.062
522.211
523.62
522.031
522.546
521.289
527.472
526.51
526.152
525.086
530.387
529.553
528.849
527.954
524.303
523.037
525.464
524.288
524.871
523.858
523.601
522.777
527.401
526.581
526.003
525.378
523.173
521.95
522.008
520.989
522.784
521.226
521.738
520.878
523.724
522.014
522.83
521.791
521.857
520.52
520.782
520.089
520.839
519.762
519.94
519.404
525.491
526.527
523.679
524.732
525.415
526.507
523.516
524.607
525.294
526.275
523.25
524.227
528.492
531.974
526.346
524.662
522.932
532.74
529.294
527.313
525.654
523.793
531.275
527.883
525.479
523.896
522.695
528.261
530.625
526.471
528.755
528.083
530.347
526.17
528.361
527.659
529.807
525.592
527.635
533.755
535.636
530.091
531.997
528.043
529.983
526.48
528.443
524.715
526.645
531.919
533.052
528.436
529.573
526.098
527.428
524.632
526.238
523.583
525.533
526.354
526.819
524.9
524.99
529.507
529.877
527.773
527.658
523.091
523.657
524.345
525.224
523.778
523.581
522.71
522.41
526.422
526.033
525.226
524.711
522.079
522.393
521.121
521.345
522.033
523.102
521.663
523.262
523.173
524.518
522.551
524.357
521.098
521.928
520.895
522.298
520.302
521.041
520.194
521.419
533.834
537.044
540.098
532.673
536.293
539.354
533.365
536.619
539.744
532.12
535.765
538.961
532.652
535.85
539.026
531.223
535.044
538.456
538.164
541.302
544.699
534.566
537.803
541.262
532.579
535.944
539.454
531.177
534.524
537.919
530.251
534.273
537.993
535.089
538.498
542.347
531.693
535.153
539.008
529.826
533.474
537.436
529.028
532.852
536.843
529.302
533.524
537.615
522.874
524.59
528.58
535.709
523.477
525.3
529.424
536.623
522.605
524.378
528.38
535.576
522.988
524.913
529.07
536.289
522.246
524.104
527.944
534.929
522.089
524.142
528.228
535.363
522.185
524.439
528.811
536.127
521.779
524.262
528.811
536.182
521.409
523.572
527.567
534.636
521.514
523.806
527.478
533.842
521.997
523.967
527.594
534.16
522.17
524.264
527.688
533.688
520.928
523.283
527.58
534.905
520.942
523.408
527.284
533.793
520.433
522.976
527.42
534.709
520.44
523.06
527.045
533.524
522.987
524.541
528.182
534.89
523.844
525.199
528.332
534.2
522.907
524.504
528.097
534.765
523.802
525.209
528.326
534.143
522.792
524.471
527.954
534.433
523.613
525.14
528.265
534.012
522.749
524.539
527.857
533.96
523.433
525.09
528.18
533.768
522.822
524.733
527.908
533.502
525.164
526.347
529.19
533.373
526.646
527.723
530.618
534.524
524.994
526.254
529.118
533.294
526.469
527.636
530.567
534.487
524.685
526.093
529.022
533.227
526.159
527.489
530.489
534.419
524.239
525.848
528.837
533.062
525.74
527.274
530.36
534.323
523.665
525.527
528.613
532.881
525.249
527.027
530.222
534.226
522.572
524.905
528.312
532.739
524.001
526.304
529.766
533.915
523.108
525.219
528.471
532.823
524.621
526.668
529.996
534.066
522.088
524.613
528.167
532.673
523.427
525.96
529.557
533.751
521.623
524.31
527.963
532.507
522.901
525.625
529.336
533.575
546.519
555.242
562.678
568.723
573.365
547.048
555.678
563.094
569.134
573.773
546.457
555.211
562.657
568.708
573.352
546.953
555.616
563.046
569.093
573.735
546.338
555.158
562.623
568.681
573.328
546.571
555.286
562.738
568.795
573.442
546.78
555.507
562.969
569.033
573.682
546.653
555.414
562.899
568.976
573.632
546.261
555.114
562.596
568.662
573.312
546.687
555.74
563.25
569.318
573.966
546.356
555.267
562.751
568.813
573.46
546.823
555.884
563.388
569.451
574.096
546.252
555.114
562.607
568.68
573.334
546.734
555.807
563.328
569.402
574.052
546.121
555.025
562.542
568.628
573.287
546.701
555.815
563.356
569.44
574.095
546.575
555.442
562.898
568.944
573.584
547.197
556.195
563.66
569.701
574.336
546.561
555.455
562.92
568.969
573.611
547.18
556.196
563.667
569.711
574.347
546.57
555.519
562.998
569.053
573.696
547.185
556.231
563.711
569.759
574.397
546.753
555.791
563.285
569.343
573.987
547.29
556.362
563.851
569.903
574.543
547.126
556.196
563.694
569.752
574.393
578.256
579.594
577.66
579.026
576.569
578.086
575.183
576.96
573.796
575.854
571.592
573.965
572.717
575.039
570.483
572.769
569.33
571.41
592.782
608.774
622.355
633.108
640.694
592.567
608.674
622.411
633.235
640.945
592.512
608.631
622.266
633.043
640.637
592.325
608.57
622.323
633.212
640.905
591.969
608.327
622.066
632.894
640.509
591.802
608.278
622.132
633.07
640.784
591.235
607.891
621.774
632.676
640.322
591.13
607.88
621.866
632.872
640.616
590.378
607.338
621.392
632.389
640.077
590.404
607.41
621.541
632.625
640.402
588.518
605.969
620.37
631.578
639.356
588.724
606.184
620.627
631.891
639.733
589.452
606.673
620.907
632.012
639.747
589.611
606.849
621.136
632.308
640.117
587.583
605.247
619.808
631.118
638.941
587.724
605.41
620.021
631.391
639.277
586.627
604.498
619.22
630.638
638.512
586.632
604.584
619.356
630.845
638.804
526.584
528.54
530.391
528.149
531.421
531.086
530.959
530.503
531.575
530.957
534.231
533.513
535.694
534.883
533.7
533.019
532.944
532.469
532.826
532.458
528.376
527.983
534.864
537.548
538.249
538.583
536.144
534.179
537.09
533.858
539.664
543.475
534.731
535.667
538.631
535.605
536.839
537.173
531.827
531.829
533.594
533.107
532.261
531.731
532.58
533.505
536.777
536.249
534.859
534.314
529.41
528.798
530.09
529.643
530.668
530.738
532.764
535.07
532.656
524.692
522.854
522.119
522.304
523.422
525.232
523.688
523.054
523.395
524.817
532.966
532.094
532.028
532.812
534.484
535.713
534.912
534.914
535.752
537.448
536.389
535.556
535.523
536.332
538.01
536.751
535.952
535.955
536.791
538.484
534.265
533.413
533.364
534.162
535.839
530.14
527.741
526.518
526.337
527.157
532.782
530.181
528.873
528.676
529.612
530.963
529.139
528.209
528.333
529.641
535.665
533.156
531.943
531.856
532.996
539.562
536.983
535.747
535.648
536.79
532.418
531.096
530.599
531.054
532.549
532.987
531.328
530.539
530.778
532.157
536.028
534.426
533.682
533.954
535.349
533.443
532.273
531.912
532.469
534.017
534.547
533.241
532.756
533.219
534.716
535.05
533.916
533.588
534.167
535.724
528.13
526.094
525.104
525.084
526.057
529.266
527.734
527.049
527.352
528.76
531.395
530.191
529.801
530.334
531.873
531.004
529.904
529.614
530.224
531.804
529.999
528.739
528.299
528.794
530.311
529.591
528.456
528.135
528.721
530.29
530.578
529.594
529.418
530.119
531.748
531.515
530.539
530.369
531.072
532.702
534.803
533.838
533.674
534.379
536.004
534.328
533.427
533.327
534.083
535.737
532.792
531.727
531.466
532.099
533.688
532.31
531.315
531.125
531.812
533.432
525.83
523.938
523.129
523.254
524.308
526.21
524.744
524.156
524.533
525.98
527.106
525.413
524.623
524.8
525.999
527.324
526.037
525.583
526.066
527.578
528.469
527.281
526.911
527.461
529.01
528.23
526.76
526.125
526.461
527.888
530.744
529.739
529.541
530.224
531.843
533.142
532.235
532.132
532.888
534.543
530.582
529.515
529.257
529.893
531.487
527.38
528.551
527.482
528.782
524.745
526.102
524.682
525.883
527.602
527.768
528.851
528.612
524.8
524.895
526.05
525.704
530.204
532.994
531.26
533.939
530.229
532.753
531.468
533.944
531.53
530.431
530.94
530.209
532.386
533.493
530.395
531.721
529.816
531.263
527.687
529.077
526.892
528.24
533.023
534.446
532.196
533.817
535.045
536.754
535.575
537.841
536.398
538.556
535.396
538.085
536.458
538.842
534.943
538.581
535.674
538.907
537.112
540.423
539.071
542.448
528.664
529.416
529.262
530.119
525.175
525.442
525.81
526.055
532.599
534.704
532.059
533.971
530.216
530.969
531.441
532.021
526.737
526.838
527.868
527.788
533.572
535.588
534.905
536.728
536.103
540.124
539.499
544.05
535.733
540.066
538.869
543.667
537.045
540.892
540.36
544.781
538.461
542.255
541.547
545.887
535.735
537.036
538.255
540.317
535.534
536.6
538.63
540.608
535.165
535.734
539.305
540.939
528.51
524.904
532.065
535.919
540.887
524.781
528.205
531.752
535.811
541.734
525.113
529
533.513
538.49
543.681
539.177
540.157
545.793
547.741
538.183
539.164
545.403
547.349
536.713
537.523
544.936
546.896
524.86
525.393
528.516
529.153
532.368
533.015
537.061
537.891
545.58
547.676
525.14
525.709
529.421
530.731
534.335
535.999
540.083
542.079
547.903
550.445
530.494
532.77
531.145
533.487
525.612
525.89
526.179
526.35
536.696
540.036
535.91
539.069
531.709
534.401
532.753
535.633
526.84
527.171
527.774
528.209
537.268
541.021
538.42
542.406
543.392
547.713
551.983
557.447
542.227
546.412
550.395
555.504
544.29
548.77
553.331
558.968
545.129
549.914
554.066
559.607
540.552
541.427
546.503
546.659
539.589
540.556
546.26
546.336
538.173
539.563
546.022
546.176
526.508
528.485
530.358
532.224
534.073
535.694
538.755
540.284
546.509
546.566
526.842
528.975
532.534
534.501
537.59
539.081
542.737
543.445
548.107
547.784
520.455
520.392
521.672
521.182
522.368
522.317
523.644
523.138
519.129
518.241
520.275
519.349
519.168
518.335
520.415
519.513
520.228
519.162
520.06
519.264
518.532
519.551
522.315
523.663
524.26
525.578
521.701
523.223
521.227
522.593
520.981
522.383
517.764
517.584
518.843
518.604
517.758
517.495
518.904
518.542
517.799
517.381
518.665
518.123
519.952
519.271
521.203
520.284
520.081
520.043
520.657
520.463
522.27
522.263
522.882
522.784
519.21
518.944
518.681
518.6
521.495
521.077
522.491
521.841
523.761
523.487
524.815
524.339
520.006
519.476
520.954
520.157
518.232
517.719
518.142
517.957
517.752
517.397
517.858
517.758
518.987
518.297
518.601
518.311
519.875
519.004
519.205
518.804
517.278
517.429
517.17
517.437
517.347
517.517
517.177
517.474
517.523
517.663
517.238
517.505
519.859
522.008
518.489
517.635
517.404
522.019
519.956
518.607
517.758
517.585
521.988
519.859
518.477
517.777
517.738
518.15
519.431
518.292
519.652
518.129
519.327
518.223
519.526
518.125
519.189
518.124
519.319
522.035
522.552
519.973
520.606
518.752
519.535
518.044
518.956
518.07
519.155
521.873
522.11
519.785
520.107
518.528
519.083
517.982
518.814
518.154
519.242
519.777
519.754
520.276
520.043
521.96
521.743
522.552
522.077
518.975
519.185
518.563
518.936
521.029
520.64
521.796
521.448
523.367
522.743
524.215
523.639
519.613
519.721
520.301
520.467
518.421
519.101
518.671
519.776
518.097
518.911
518.363
519.527
518.911
519.542
519.092
520.223
519.546
520.228
519.597
520.751
521.013
522.517
521.64
523.4
520.8
522.414
521.485
523.345
520.601
522.39
521.249
523.407
523.66
525.645
521.819
523.843
520.807
522.838
520.349
522.436
521.091
523.635
523.033
525.315
521.18
523.556
520.405
522.879
520.429
522.998
521.371
524.252
518.817
521.859
526.718
534.451
519.754
522.786
527.701
535.452
518.76
521.785
526.626
534.413
519.663
522.662
527.531
535.251
518.719
521.72
526.325
533.865
519.294
522.246
526.917
534.475
520.31
523.163
527.928
535.524
521.097
523.798
528.489
535.959
518.993
521.925
526.415
533.832
519.455
522.397
526.468
533.093
518.831
521.82
526.109
533.153
519.344
522.342
526.348
532.743
519.389
522.231
526.834
534.368
519.68
522.541
526.65
533.299
519.902
522.611
527.161
534.522
520.012
522.765
526.828
533.352
518.499
521.537
526.138
533.502
518.902
521.93
526.108
532.656
518.558
521.589
526.122
533.441
518.995
522.024
526.165
532.654
518.704
521.727
526.095
533.203
519.117
522.147
526.239
532.631
518.99
522.009
526.134
532.815
519.286
522.319
526.305
532.506
519.389
522.417
526.317
532.407
519.877
522.901
526.854
531.602
521.169
524.199
528.208
532.623
519.877
522.907
526.846
531.575
521.175
524.213
528.22
532.636
519.906
522.944
526.888
531.623
521.209
524.261
528.271
532.666
519.948
522.998
526.898
531.617
521.25
524.323
528.321
532.706
520.03
523.09
526.928
531.604
521.332
524.429
528.411
532.779
520.478
523.481
527.29
531.914
521.653
524.719
528.642
533.005
520.216
523.264
527.097
531.753
521.438
524.538
528.496
532.858
520.814
523.743
527.533
532.145
521.999
524.99
528.866
533.188
521.197
524.019
527.749
532.327
522.429
525.303
529.107
533.387
545.772
554.784
562.39
568.53
573.213
546.334
555.236
562.816
568.947
573.627
545.775
554.792
562.395
568.531
573.213
546.329
555.23
562.803
568.93
573.607
545.735
554.79
562.393
568.526
573.206
546.053
554.967
562.537
568.66
573.336
546.418
555.283
562.828
568.938
573.608
546.516
555.329
562.845
568.94
573.604
545.794
554.829
562.417
568.541
573.218
546.273
555.49
563.094
569.213
573.883
545.805
554.933
562.542
568.672
573.35
546.329
555.587
563.203
569.326
573.998
545.929
554.916
562.483
568.597
573.268
546.451
555.635
563.221
569.33
573.996
546.008
554.956
562.498
568.599
573.264
546.602
555.755
563.318
569.415
574.075
545.792
554.967
562.601
568.744
573.428
546.389
555.71
563.357
569.498
574.177
545.825
555.009
562.641
568.782
573.464
546.408
555.733
563.378
569.517
574.195
545.908
555.12
562.748
568.885
573.564
546.481
555.809
563.448
569.583
574.258
546.162
555.436
563.064
569.194
573.87
546.668
555.99
563.619
569.747
574.42
546.581
555.869
563.49
569.615
574.285
559.841
561.377
560.058
561.628
560.553
562.165
561.343
562.922
562.612
563.975
565.839
567.615
564.393
565.936
567.085
569.043
568.212
570.2
579.372
599.212
615.243
627.47
635.768
578.946
598.998
615.239
627.56
636.002
579.57
599.352
615.343
627.547
635.832
579.204
599.196
615.348
627.689
636.089
579.972
599.63
615.54
627.698
635.96
579.595
599.462
615.535
627.831
636.209
580.598
600.058
615.847
627.936
636.165
580.173
599.851
615.812
628.045
636.394
581.489
600.658
616.284
628.282
636.467
580.917
600.345
616.169
628.326
636.64
583.624
602.142
617.383
629.15
637.213
583.252
601.928
617.32
629.216
637.382
582.541
601.36
616.798
628.689
636.821
581.987
601.039
616.67
628.716
636.967
584.652
602.93
617.987
629.634
637.629
584.458
602.833
618.001
629.749
637.831
585.658
603.727
618.613
630.141
638.072
585.568
603.736
618.687
630.3
638.322
524.854
526.702
525.238
523.31
520.474
521.645
520.464
521.798
522.374
523.755
522.358
523.547
547.552
547.152
546.171
544.624
542.543
540.041
547.68
547.298
546.365
544.913
543.009
540.775
548.509
549.921
548.056
549.405
546.957
548.16
545.202
546.14
542.86
543.559
540.145
540.893
537.358
534.812
532.614
530.791
529.421
528.439
538.393
536.078
533.993
532.238
530.88
529.943
545.834
545.156
545.276
546.198
547.923
545.43
544.748
544.864
545.783
547.507
544.441
543.751
543.861
544.776
546.499
542.881
542.178
542.276
543.182
544.904
540.78
540.056
540.134
541.027
542.745
538.248
537.492
537.539
538.41
540.12
545.961
545.281
545.399
546.319
548.042
545.575
544.891
545.005
545.922
547.644
544.633
543.941
544.047
544.959
546.68
543.168
542.461
542.555
543.458
545.176
541.244
540.516
540.59
541.478
543.193
538.98
538.222
538.265
539.132
540.839
546.794
546.118
546.24
547.161
548.884
548.21
547.536
547.658
548.578
550.298
546.337
545.658
545.776
546.695
548.417
547.69
547.012
547.13
548.048
549.767
545.23
544.542
544.653
545.568
547.289
546.437
545.75
545.861
546.774
548.493
543.461
542.76
542.858
543.765
545.485
544.401
543.699
543.796
544.7
546.417
541.098
540.375
540.453
541.345
543.062
541.795
541.068
541.142
542.029
543.742
538.351
537.595
537.641
538.511
540.22
539.096
538.335
538.374
539.238
540.942
535.52
534.717
534.717
535.554
537.249
532.912
532.041
531.974
532.76
534.433
530.627
529.661
529.503
530.219
531.857
528.682
527.591
527.318
527.946
529.539
527.169
525.954
525.575
526.123
527.673
526.092
524.807
524.376
524.885
526.413
536.558
535.756
535.757
536.592
538.286
534.19
533.329
533.274
534.066
535.74
532.038
531.104
530.977
531.716
533.364
530.204
529.187
528.983
529.663
531.283
528.77
527.68
527.41
528.041
529.636
527.788
526.66
526.358
526.966
528.55
547.368
546.597
545.245
543.323
540.86
537.967
547.497
546.747
545.448
543.632
541.374
538.81
548.317
549.719
547.479
548.799
545.992
547.145
543.84
544.702
541.096
541.702
537.93
538.514
534.919
532.129
529.892
528.378
527.732
527.828
536.164
533.715
531.698
530.281
529.55
529.47
545.65
544.972
545.094
546.016
547.742
544.876
544.196
544.316
545.239
546.965
543.517
542.832
542.948
543.868
545.597
541.584
540.889
540.997
541.913
543.643
539.105
538.394
538.489
539.398
541.127
536.186
535.452
535.525
536.42
538.146
545.778
545.099
545.218
546.139
547.863
545.025
544.344
544.461
545.382
547.107
543.718
543.031
543.144
544.062
545.788
541.891
541.193
541.297
542.211
543.938
539.616
538.902
538.992
539.896
541.622
537.028
536.29
536.357
537.246
538.969
546.602
545.927
546.05
546.972
548.696
548.009
547.336
547.459
548.38
550.1
545.761
545.084
545.205
546.127
547.852
547.085
546.409
546.531
547.452
549.174
544.267
543.584
543.7
544.621
546.348
545.423
544.741
544.858
545.778
547.502
542.103
541.41
541.52
542.436
544.165
542.967
542.274
542.382
543.297
545.023
539.342
538.634
538.729
539.639
541.368
539.948
539.238
539.332
540.239
541.966
536.152
535.42
535.495
536.391
538.119
536.736
536.002
536.075
536.969
538.695
533.103
532.332
532.371
533.241
534.961
530.263
529.438
529.424
530.257
531.96
527.951
527.045
526.955
527.73
529.405
526.322
525.3
525.102
525.794
527.426
525.526
524.369
524.053
524.654
526.236
525.499
524.239
523.833
524.362
525.903
534.348
533.574
533.608
534.474
536.188
531.853
531.029
531.016
531.846
533.546
529.774
528.884
528.807
529.589
531.266
528.28
527.308
527.153
527.876
529.523
527.466
526.411
526.179
526.843
528.459
527.326
526.211
525.923
526.544
528.135
527.316
527.155
531.781
534.899
534.946
535.749
532.913
525.414
526.219
525.966
528.231
528.328
527.755
529.883
530.181
531.407
525.324
525.759
528.047
528.345
526.958
527.416
529.188
529.566
532.196
532.31
529.883
529.955
526.306
526.519
525.435
526.456
526.822
525.76
528.94
531.418
528.338
523.695
521.949
521.281
521.523
522.699
524.44
522.942
522.352
522.73
524.176
529.924
529.111
529.11
529.953
531.662
533.09
532.327
532.373
533.25
534.972
533.127
532.352
532.386
533.252
534.968
533.947
533.19
533.241
534.121
535.843
531.078
530.287
530.306
531.163
532.879
522.225
520.659
520.085
520.417
521.604
523.123
521.627
521.12
521.517
522.797
523.59
522.311
521.892
522.415
523.953
525.444
524.104
523.71
524.209
525.673
526.29
525.29
525.113
525.823
527.466
525.56
524.427
524.135
524.757
526.351
527.923
526.996
526.886
527.644
529.311
528.185
527.222
527.075
527.806
529.457
529.474
528.574
528.487
529.262
530.935
522.184
520.644
520.089
520.437
521.659
523.494
522.297
521.945
522.518
524.087
526.041
525.072
524.923
525.654
527.308
526.377
525.446
525.332
526.09
527.759
524.887
523.857
523.652
524.341
525.973
525.397
524.415
524.255
524.977
526.628
527.253
526.356
526.275
527.057
528.738
527.657
526.788
526.733
527.535
529.226
530.318
529.479
529.45
530.269
531.965
530.455
529.642
529.64
530.48
532.188
527.956
527.065
526.988
527.772
529.453
528.05
527.184
527.132
527.935
529.626
522.911
521.278
520.664
520.957
522.168
524.022
522.668
522.192
522.664
524.172
522.715
521.315
520.8
521.209
522.565
524.242
523.083
522.762
523.359
524.94
524.735
523.688
523.466
524.141
525.766
523.472
522.254
521.877
522.429
523.986
527.004
526.106
526.024
526.806
528.487
529.553
528.731
528.72
529.555
531.26
526.374
525.448
525.339
526.1
527.771
529.175
527.548
526.862
527.065
528.093
530.154
526.989
527.131
524.3
524.231
527.288
527.554
524.412
524.579
529.934
533.032
529.972
532.755
530.28
530.149
532.264
526.899
527.057
524.179
524.092
527.23
527.502
524.318
524.538
530.086
533.361
530.116
533.003
530.41
530.205
532.479
526.93
527.103
524.145
524.036
527.292
527.579
524.316
524.55
530.233
534.207
530.268
533.736
530.568
530.35
533.096
527.504
527.676
524.656
524.538
527.883
528.22
524.838
525.108
531.026
535.236
531.028
534.73
531.293
531.04
533.96
528.541
528.706
525.702
525.583
528.913
529.309
525.883
526.154
532.086
536.029
532.07
535.628
532.292
532.114
534.878
530.413
530.566
527.627
527.512
530.738
531.076
527.802
528.05
533.76
537.393
533.713
537.016
533.899
533.705
536.258
520.014
520.01
521.908
521.887
520.075
520.138
521.977
522.082
518.693
517.729
518.765
517.879
518.802
518.988
518.188
519.864
519.886
521.775
521.732
519.99
520.101
521.879
522.003
518.484
517.701
518.597
517.893
518.713
518.963
518.225
519.79
519.846
521.72
521.649
519.999
520.155
521.866
522.044
518.563
518.088
518.706
518.262
518.896
519.158
518.573
520.292
520.371
522.219
522.132
520.558
520.769
522.388
522.576
519.194
519.012
519.361
519.175
519.618
519.934
519.47
521.38
521.47
523.285
523.192
521.699
521.981
523.458
523.666
520.4
520.38
520.582
520.512
520.872
521.226
520.759
523.387
523.48
525.252
525.159
523.71
523.96
525.427
525.628
522.42
522.193
522.594
522.339
522.84
523.144
522.593
544.076
543.562
542.57
541.735
540.45
539.6
537.562
536.866
538.195
537.385
540.467
539.652
542.143
541.377
543.509
542.956
539.748
538.661
538.296
536.794
536.23
534.843
534.891
533.125
545.875
548.889
545.324
548.142
544.459
547.358
543.554
546.294
541.341
543.007
539.827
541.93
545.525
543.757
536.509
533.864
535.039
533.063
533.302
531.061
531.569
529.866
539.547
536.798
537.962
535.875
541.995
539.326
552.379
554.492
550.952
553.154
550.83
553.482
549.11
551.554
548.636
552.211
545.964
549.29
543.892
547.182
541.513
544.856
538.911
538.432
536.609
536.379
534.241
533.637
532.397
531.8
540.698
541.303
543.392
543.483
534.659
534.676
532.893
533.259
530.733
530.255
529.17
528.934
538.489
539.496
536.524
538.03
544.74
548.739
546.236
550.728
547.637
551.73
548.51
553.174
542.344
546.235
544.363
548.77
540.217
544.051
542.883
547.221
557.394
562.007
558.138
562.702
555.942
560.239
557.334
561.691
553.592
556.903
556.025
559.617
542.166
536.649
547.198
550.999
555.18
537.485
543.324
549.344
553.401
557.906
535.961
541.152
546.203
551.023
555.805
566.271
568.403
568.527
570.405
564.06
566.506
567.037
569.069
560.322
563.071
564.54
566.962
538.855
541.11
545.238
548.282
551.15
554.298
555.872
558.974
562.191
565.281
536.981
538.81
542.804
545.949
548.289
551.863
553.79
557.642
560.796
564.839
539.981
543.496
537.468
540.593
534.261
535.366
532.008
532.688
543.301
547.425
545.756
550.136
535.336
538.471
533.946
536.939
530.194
530.849
528.88
529.399
541.071
545.27
539.668
543.769
549.995
554.975
558.348
564.369
551.981
557.211
559.684
565.597
548.167
552.988
557.072
562.993
546.441
551.31
555.26
560.868
569.142
570.185
572.046
569.497
570.005
571.717
567.707
568.979
570.953
568.418
569.026
570.869
564.877
566.514
568.709
566.837
567.701
569.766
543.885
547.047
550.425
551.552
554.35
557.366
557.329
559.771
562.458
561.461
563.535
566.113
565.595
566.762
569.177
541.39
544.942
548.766
550.17
553.894
557.704
556.153
559.472
562.918
561.01
563.559
566.635
565.564
567.055
569.838
530.04
528.916
529.027
527.578
532.822
531.438
531.662
529.945
529.677
527.519
529.411
527.409
528.95
527.028
528.454
526.662
526.844
527.814
526.206
527.351
526.556
525.755
526.43
525.095
528.559
527.08
526.165
524.871
525.264
524.048
525.259
523.998
525.345
523.461
525.722
523.981
524.978
523.065
525.049
523.311
524.63
522.559
524.063
522.212
523.621
522.032
522.548
521.29
527.475
526.512
526.154
525.088
530.39
529.556
528.852
527.956
524.305
523.039
525.466
524.29
524.873
523.86
523.603
522.778
527.404
526.583
526.006
525.38
523.174
521.952
522.009
520.99
522.785
521.227
521.739
520.879
523.725
522.016
522.831
521.792
521.859
520.521
520.783
520.09
520.84
519.763
519.942
519.405
525.51
526.539
523.69
524.737
525.416
526.508
523.517
524.609
525.295
526.276
523.252
524.229
528.494
531.976
526.347
524.663
522.933
532.742
529.296
527.314
525.655
523.794
531.278
527.885
525.481
523.897
522.696
528.27
530.638
526.474
528.76
528.084
530.347
526.171
528.363
527.66
529.808
525.593
527.636
533.757
535.638
530.093
531.999
528.044
529.984
526.481
528.444
524.717
526.647
531.921
533.054
528.438
529.575
526.099
527.43
524.633
526.24
523.584
525.534
526.356
526.821
524.902
524.992
529.509
529.879
527.775
527.66
523.093
523.658
524.347
525.225
523.78
523.582
522.712
522.412
526.424
526.035
525.227
524.713
522.08
522.394
521.123
521.346
522.035
523.103
521.664
523.264
523.175
524.519
522.552
524.358
521.099
521.93
520.896
522.299
520.303
521.042
520.195
521.42
533.85
537.063
540.117
532.678
536.302
539.365
533.365
536.619
539.744
532.122
535.767
538.962
532.653
535.851
539.027
531.225
535.045
538.457
538.166
541.304
544.701
534.568
537.805
541.263
532.58
535.945
539.455
531.178
534.525
537.92
530.253
534.275
537.995
535.091
538.5
542.349
531.695
535.154
539.01
529.828
533.476
537.437
529.029
532.854
536.844
529.304
533.526
537.617
522.89
524.602
528.593
535.726
523.507
525.326
529.449
536.65
522.606
524.379
528.38
535.575
522.987
524.912
529.069
536.287
522.247
524.105
527.944
534.928
522.09
524.142
528.228
535.361
522.186
524.439
528.811
536.126
521.779
524.262
528.81
536.181
521.41
523.573
527.567
534.635
521.515
523.806
527.478
533.842
521.998
523.967
527.594
534.16
522.171
524.264
527.688
533.688
520.928
523.283
527.58
534.905
520.943
523.408
527.284
533.793
520.434
522.976
527.42
534.708
520.44
523.06
527.045
533.524
522.993
524.545
528.187
534.902
523.845
525.198
528.332
534.205
522.909
524.505
528.097
534.765
523.804
525.21
528.327
534.142
522.793
524.472
527.954
534.432
523.614
525.141
528.265
534.011
522.75
524.54
527.857
533.96
523.434
525.091
528.18
533.768
522.823
524.733
527.909
533.502
525.16
526.34
529.184
533.374
526.641
527.715
530.61
534.517
524.995
526.255
529.119
533.295
526.47
527.638
530.568
534.489
524.686
526.094
529.023
533.227
526.16
527.49
530.49
534.42
524.24
525.849
528.837
533.062
525.741
527.274
530.361
534.323
523.666
525.528
528.613
532.881
525.25
527.027
530.222
534.227
522.572
524.906
528.312
532.739
524.002
526.304
529.767
533.915
523.109
525.219
528.471
532.823
524.622
526.669
529.997
534.066
522.089
524.613
528.167
532.673
523.428
525.96
529.558
533.751
521.624
524.311
527.963
532.506
522.901
525.625
529.336
533.575
546.524
555.245
562.679
568.724
573.366
547.064
555.69
563.105
569.145
573.784
546.456
555.21
562.656
568.707
573.351
546.95
555.612
563.042
569.089
573.731
546.337
555.157
562.622
568.68
573.326
546.569
555.284
562.735
568.793
573.44
546.778
555.505
562.967
569.031
573.68
546.652
555.412
562.897
568.975
573.63
546.26
555.113
562.594
568.66
573.311
546.686
555.739
563.249
569.317
573.964
546.355
555.266
562.75
568.811
573.459
546.822
555.884
563.387
569.45
574.095
546.251
555.113
562.606
568.679
573.333
546.733
555.806
563.327
569.401
574.051
546.12
555.024
562.54
568.627
573.286
546.7
555.814
563.354
569.439
574.093
546.573
555.437
562.891
568.938
573.578
547.19
556.186
563.65
569.691
574.326
546.561
555.456
562.92
568.97
573.611
547.181
556.197
563.667
569.711
574.347
546.57
555.519
562.997
569.052
573.695
547.185
556.231
563.711
569.759
574.396
546.752
555.79
563.284
569.342
573.986
547.29
556.362
563.851
569.903
574.542
547.125
556.196
563.693
569.751
574.392
578.288
579.619
577.66
579.028
576.571
578.088
575.185
576.961
573.798
575.855
571.594
573.967
572.719
575.041
570.485
572.771
569.332
571.412
592.799
608.784
622.363
633.115
640.7
592.576
608.676
622.412
633.235
640.944
592.513
608.632
622.266
633.043
640.637
592.328
608.572
622.324
633.213
640.907
591.971
608.328
622.067
632.895
640.51
591.804
608.28
622.133
633.071
640.785
591.237
607.892
621.775
632.677
640.323
591.132
607.881
621.867
632.873
640.617
590.38
607.34
621.394
632.39
640.078
590.406
607.412
621.542
632.626
640.403
588.52
605.971
620.372
631.579
639.357
588.726
606.185
620.629
631.893
639.734
589.454