/*--------------------------------*- C++ -*----------------------------------*\
  =========                 |
  \\      /  F ield         | OpenFOAM: The Open Source CFD Toolbox
   \\    /   O peration     | Website:  https://openfoam.org
    \\  /    A nd           | Version:  13
     \\/     M anipulation  |
\*---------------------------------------------------------------------------*/
FoamFile
{
    format      ascii;
    class       volScalarField;
    location    "419.831886";
    object      T;
}
// * * * * * * * * * * * * * * * * * * * * * * * * * * * * * * * * * * * * * //

dimensions      [0 0 0 1 0 0 0];

internalField   nonuniform List<scalar> 
5712
(
658.872
659.631
660.862
662.044
663.885
665.102
668.108
669.108
667.281
668.425
663.976
665.123
661.577
662.653
659.785
660.594
664.794
666.253
666.875
668.934
669.934
671.817
671.865
674.305
656.21
651.846
657.024
652.953
658.084
653.903
659.369
655.427
662.438
660.063
664.542
661.535
656.445
658.973
669.495
673.377
671.516
674.459
674.199
677.507
676.612
679.17
665.067
669.092
667.277
670.372
661.557
665.457
646.861
643.962
648.979
645.974
648.927
645.274
651.437
648.088
651.949
646.993
655.788
651.185
658.818
654.266
662.307
657.662
665.773
666.4
669.112
669.397
672.569
673.374
675.275
676.08
663.203
662.319
659.324
659.158
671.989
671.93
674.635
674.077
677.759
678.404
680.127
680.428
666.436
664.982
669.352
667.182
657.439
651.906
655.361
649.185
653.282
647.646
652.085
645.695
660.926
655.521
658.096
652.016
664.061
658.711
660.297
654.29
639.862
633.456
638.824
632.475
641.75
635.765
639.85
633.782
644.967
640.328
641.622
636.606
661.084
669.036
653.899
648.513
642.783
667.828
659.442
650.884
645.137
638.968
669.992
662.488
655.271
648.507
641.982
627.575
624.64
624.455
621.841
630.476
627.108
626.411
623.588
635.57
631.773
629.802
626.446
665.819
662.578
656.69
652.392
648.305
643.902
641.661
637.337
633.065
628.805
668.452
665.754
660.08
655.582
652.29
647.253
644.628
639.27
635.129
629.6
664.138
659.156
667.815
663.375
672.382
670.701
675.71
674.643
659.511
653.778
655.942
649.856
670.984
666.529
673.109
668.873
678.45
677.437
680.488
679.713
662.787
656.941
664.906
659.206
650.169
643.377
638.802
630.725
647.284
640.147
636.834
628.894
652.838
646.258
640.683
632.74
655.377
648.729
643.285
635.754
623.638
622.353
620.12
623.043
622.469
620.432
625.49
623.896
621.509
624.443
623.734
621.524
629.312
627.195
624.492
626.59
625.527
623.023
658.632
654.233
649.695
647.822
644.012
640.07
639.708
636.447
633.024
633.905
631.166
627.931
628.339
626.861
623.906
662.038
657.069
651.907
649.654
644.558
639.556
641.291
636.812
632.385
634.615
631.22
627.346
628.559
626.63
623.203
679.079
680.616
680.569
682.592
674.953
676.843
676.641
679.025
679.846
683.019
680.255
683.213
680.8
683.637
681.531
684.198
683.831
682.387
684.683
682.979
684.267
685.483
684.327
686.369
681.098
683.34
684.869
686.831
686.127
688.002
686.262
688.193
686.192
688.99
685.705
688.309
686.651
689.532
686.605
689.244
687.095
690.247
688.002
690.853
688.721
691.208
690.4
692.415
682.619
683.95
684.604
686.095
678.251
679.397
680.535
681.778
687.442
689.232
685.675
687.323
686.56
687.984
688.525
689.679
682.722
683.866
684.863
685.73
689.187
690.923
691.006
692.448
689.793
692.259
691.274
692.719
688.333
691.01
689.587
691.294
691.251
693.402
692.778
693.978
692.863
694.633
694.128
695.095
685.903
684.335
688.582
686.976
685.962
684.309
688.801
687.136
686.061
684.566
689.158
687.66
681.055
675.869
684.317
686.884
689.58
674.744
679.866
682.88
685.393
688.269
676.855
681.902
685.532
687.969
689.909
681.745
678.255
684.368
680.983
681.951
678.606
684.783
681.52
682.484
679.294
685.589
682.522
673.221
670.472
678.644
675.818
681.739
678.844
684.112
681.171
686.843
683.922
675.844
674.116
681.011
679.26
684.538
682.487
686.801
684.337
688.517
685.539
684.075
683.272
686.261
686.009
679.365
678.709
681.95
682.005
689.032
688.071
687.131
685.715
688.003
688.203
689.703
690.098
684.023
684.509
685.906
686.622
690.616
690.051
692.157
691.765
690.716
689.014
691.454
688.969
688.975
686.873
690.077
687.294
692.19
690.86
692.683
690.5
693.485
692.321
693.825
691.93
673.572
668.981
664.73
675.226
670.027
665.751
674.194
669.533
665.175
675.977
670.724
666.254
675.116
670.515
666.073
677.197
671.672
666.888
666.818
662.382
657.731
672.056
667.426
662.629
675.016
670.171
665.265
677.117
672.268
667.496
678.532
672.69
667.461
671.116
666.254
660.94
676.102
671.107
665.718
678.892
673.589
668.014
680.145
674.564
668.93
679.855
673.694
667.932
689.959
687.547
681.774
671.525
689.125
686.553
680.591
670.257
690.361
687.867
682.074
671.728
689.863
687.139
681.119
670.749
690.893
688.281
682.721
672.666
691.202
688.284
682.352
672.076
691.153
687.933
681.577
671.038
691.859
688.284
681.652
671.011
692.199
689.13
683.324
673.121
692.041
688.814
683.49
674.297
691.264
688.502
683.252
673.785
691.012
688.094
683.149
674.498
692.992
689.621
683.355
672.77
692.959
689.455
683.815
674.401
693.819
690.149
683.648
673.094
693.783
690.03
684.215
674.83
689.748
687.587
682.33
672.686
688.457
686.613
682.113
673.69
689.866
687.649
682.463
672.877
688.521
686.606
682.131
673.781
690.041
687.711
682.689
673.374
688.806
686.723
682.238
673.988
690.108
687.633
682.855
674.078
689.081
686.816
682.383
674.36
690.012
687.376
682.808
674.758
686.517
684.952
680.897
674.92
684.371
682.982
678.883
673.356
686.766
685.092
681.007
675.039
684.629
683.113
678.964
673.415
687.222
685.34
681.16
675.149
685.082
683.34
679.089
673.524
687.887
685.717
681.45
675.406
685.702
683.671
679.293
673.678
688.755
686.218
681.803
675.69
686.435
684.056
679.518
673.838
690.468
687.225
682.317
675.952
688.356
685.199
680.253
674.35
689.617
686.713
682.046
675.801
687.388
684.616
679.877
674.096
691.254
687.712
682.575
676.084
689.278
685.765
680.607
674.628
692.025
688.221
682.924
676.368
690.148
686.326
680.984
674.929
656.258
644.155
634.056
626.064
620.166
655.558
643.601
633.543
625.569
619.682
656.354
644.204
634.087
626.087
620.185
655.7
643.693
633.61
625.625
619.732
656.531
644.284
634.137
626.125
620.218
656.227
644.126
634.001
625.991
620.085
655.978
643.864
633.727
625.713
619.807
656.184
644.008
633.831
625.793
619.877
656.657
644.355
634.182
626.156
620.243
656.12
643.567
633.376
625.364
619.468
656.523
644.152
633.983
625.969
620.063
655.929
643.375
633.199
625.2
619.311
656.693
644.372
634.179
626.141
620.223
656.082
643.498
633.29
625.27
619.371
656.904
644.51
634.275
626.215
620.288
656.159
643.509
633.27
625.234
619.328
656.191
643.901
633.782
625.796
619.904
655.38
642.942
632.839
624.88
619.01
656.221
643.89
633.759
625.768
619.875
655.41
642.946
632.833
624.871
618.999
656.226
643.819
633.669
625.672
619.778
655.417
642.911
632.785
624.817
618.944
656.005
643.483
633.32
625.325
619.434
655.294
642.754
632.618
624.648
618.774
655.523
642.972
632.818
624.835
618.956
611.723
609.989
612.538
610.77
614.042
612.073
615.976
613.655
617.955
615.236
621.185
618.058
619.549
616.478
622.791
619.792
624.455
621.74
593.258
573.636
557.596
545.458
537.433
593.549
573.796
557.581
545.369
537.214
593.628
573.83
557.717
545.545
537.509
593.885
573.944
557.7
545.41
537.272
594.374
574.244
557.985
545.741
537.674
594.605
574.342
557.956
545.597
537.429
595.392
574.842
558.38
546.033
537.919
595.536
574.887
558.315
545.86
537.65
596.598
575.608
558.903
546.422
538.247
596.555
575.534
558.758
546.193
537.932
599.226
577.492
560.282
547.496
539.183
598.957
577.244
560.007
547.176
538.807
597.907
576.524
559.559
546.924
538.678
597.686
576.314
559.311
546.619
538.307
600.545
578.485
561.038
548.101
539.717
600.375
578.311
560.824
547.835
539.393
601.892
579.514
561.828
548.735
540.274
601.911
579.448
561.716
548.553
540.006
684.223
681.264
678.513
681.881
677.239
677.716
677.854
678.514
676.898
677.802
672.985
674.029
670.926
672.08
673.86
674.832
675.001
675.674
675.214
675.733
681.204
681.78
671.172
667.257
666.418
665.84
669.344
672.38
668.172
672.801
664.526
659.284
671.528
670.206
666.087
670.296
668.581
668.128
675.818
675.73
673.14
673.813
675.065
675.828
674.555
673.199
668.621
669.275
671.325
672.057
679.514
680.414
678.381
679.034
677.426
677.352
674.285
670.922
674.458
686.61
689.38
690.547
690.368
688.831
685.795
688.102
689.101
688.681
686.68
673.815
675.051
675.173
674.109
671.813
669.777
670.894
670.911
669.781
667.476
668.969
670.132
670.201
669.114
666.838
668.345
669.456
669.472
668.347
666.054
671.946
673.146
673.24
672.161
669.869
678.231
681.792
683.67
684.041
682.973
674.37
678.195
680.178
680.562
679.317
676.951
679.629
681.05
680.96
679.167
670.215
673.865
675.684
675.901
674.368
664.776
668.477
670.303
670.533
669.017
674.794
676.706
677.47
676.891
674.84
674.008
676.419
677.618
677.357
675.476
669.733
672.033
673.149
672.841
670.957
673.326
675.006
675.564
674.837
672.719
671.79
673.663
674.402
673.813
671.775
671.084
672.699
673.205
672.449
670.33
681.193
684.229
685.768
685.901
684.604
679.408
681.664
682.724
682.367
680.419
676.248
677.992
678.601
677.902
675.783
676.782
678.372
678.832
678.019
675.838
678.284
680.122
680.81
680.168
678.068
678.87
680.522
681.032
680.251
678.074
677.38
678.799
679.088
678.14
675.883
675.994
677.395
677.674
676.724
674.476
671.357
672.723
672.988
672.047
669.831
671.937
673.212
673.382
672.363
670.104
674.22
675.748
676.159
675.318
673.136
674.865
676.289
676.596
675.673
673.446
684.745
687.587
688.863
688.777
687.352
684.17
686.351
687.276
686.803
684.775
682.715
685.234
686.468
686.303
684.661
682.371
684.27
684.988
684.357
682.243
680.571
682.311
682.896
682.168
680.01
680.962
683.132
684.121
683.712
681.732
677.134
678.583
678.906
677.984
675.743
673.607
674.895
675.071
674.05
671.779
677.389
678.932
679.345
678.493
676.288
683.199
681.495
683.02
681.11
687.132
685.126
687.255
685.493
682.806
682.534
680.927
681.22
687.005
686.827
685.111
685.555
679.014
674.939
677.494
673.592
678.953
675.263
677.145
673.539
676.973
678.624
677.799
678.935
675.769
674.12
678.622
676.587
679.383
677.173
682.643
680.5
683.724
681.645
674.758
672.595
675.902
673.453
671.835
669.27
671.231
668.043
670.071
667.046
671.451
667.661
669.93
666.584
672.055
666.91
670.948
666.388
668.826
664.174
665.916
661.195
681.196
680.084
680.23
678.96
686.391
685.979
685.364
684.977
675.336
672.281
676.211
673.437
678.736
677.616
676.842
675.98
683.9
683.72
682.13
682.214
673.828
670.903
671.788
669.157
670.273
664.604
665.424
659.065
670.894
664.778
666.422
659.707
668.822
663.413
664.094
657.932
666.679
661.365
662.301
656.269
671.029
669.23
667.478
664.613
671.299
669.839
666.93
664.188
671.805
671.05
665.947
663.694
681.498
686.869
676.28
670.707
663.696
687.083
681.982
676.785
670.915
662.553
686.545
680.772
674.178
667.042
659.769
666.258
664.933
657.002
654.32
667.653
666.329
657.527
654.853
669.719
668.645
658.148
655.466
687.024
686.33
681.587
680.762
675.955
675.122
669.195
668.104
657.232
654.384
686.561
685.82
680.224
678.431
673.068
670.801
664.864
662.164
653.969
650.551
678.576
675.407
677.529
674.262
685.773
685.465
684.829
684.659
669.506
664.889
670.729
666.364
676.595
672.81
674.958
670.894
683.734
683.304
682.235
681.619
668.574
663.367
666.807
661.27
660.018
654.126
648.157
640.805
661.762
656.048
650.446
643.557
658.644
652.526
646.191
638.615
657.345
650.806
645.044
637.596
664.444
663.289
656.115
655.984
665.798
664.513
656.447
656.434
667.799
665.924
656.774
656.671
684.788
682.002
679.116
676.529
673.699
671.491
666.969
664.923
656.107
656.168
684.272
681.286
675.962
673.279
668.677
666.715
661.383
660.552
653.945
654.569
693.655
693.707
691.794
692.459
690.703
690.736
688.759
689.44
695.823
697.246
694.107
695.582
695.725
697.056
693.845
695.276
694.041
695.685
694.226
695.484
696.696
695.127
690.691
688.585
687.697
685.647
691.771
689.382
692.406
690.267
692.921
690.71
698.04
698.413
696.419
696.879
698
698.513
696.268
696.923
697.862
698.63
696.509
697.464
694.505
695.667
692.522
694.039
694.157
694.181
693.211
693.455
690.785
690.773
689.787
689.9
695.492
695.834
696.368
696.446
691.864
692.432
690.273
691.181
688.384
688.751
686.716
687.377
694.204
694.93
692.679
693.8
697.074
697.996
697.143
697.562
697.873
698.553
697.664
697.953
695.849
697.04
696.351
696.934
694.41
695.875
695.336
696.095
698.8
698.612
699.062
698.699
698.656
698.445
699.029
698.624
698.329
698.158
698.896
698.533
694.554
691.247
696.719
698.107
698.598
691.259
694.435
696.577
697.962
698.367
691.264
694.535
696.708
697.861
698.054
697.574
695.704
697.458
695.466
697.57
695.827
697.538
695.629
697.509
695.969
697.639
695.891
691.289
690.607
694.46
693.595
696.401
695.295
697.571
696.267
697.66
696.078
691.487
691.227
694.698
694.304
696.678
695.926
697.595
696.422
697.453
695.873
694.609
694.724
693.733
694.131
691.264
691.671
690.261
691.026
695.769
695.496
696.52
696.031
692.47
693.076
691.193
691.701
688.918
689.881
687.53
688.381
694.673
694.524
693.51
693.241
696.699
695.713
696.459
694.824
697.315
696.157
697.034
695.332
695.831
694.888
695.711
694.009
694.747
693.698
694.83
693.064
693.394
691.205
692.56
690.002
693.676
691.327
692.765
690.058
693.913
691.314
693.068
689.93
689.054
686.222
691.867
688.953
693.463
690.522
694.246
691.216
693.245
689.546
689.96
686.704
692.797
689.373
694.034
690.453
694.083
690.357
692.76
688.587
696.659
692.145
684.942
673.663
695.256
690.775
683.515
672.243
696.72
692.236
685.061
673.705
695.351
690.923
683.735
672.51
696.747
692.306
685.483
674.479
695.836
691.483
684.586
673.585
694.259
690.083
683.079
672.062
692.988
689.066
682.2
671.39
696.231
691.92
685.293
674.492
695.497
691.204
685.214
675.575
696.539
692.133
685.786
675.501
695.74
691.347
685.436
676.11
695.562
691.404
684.629
673.686
695.081
690.928
684.9
675.245
694.707
690.767
684.091
673.413
694.503
690.531
684.586
675.123
697.16
692.643
685.811
675.049
696.596
692.101
685.894
676.316
697.058
692.557
685.828
675.131
696.446
691.955
685.805
676.314
696.814
692.338
685.857
675.468
696.238
691.754
685.684
676.337
696.357
691.904
685.792
676.028
695.955
691.481
685.574
676.508
695.733
691.287
685.521
676.624
695.182
690.709
684.855
677.926
693.3
688.842
682.946
676.563
695.167
690.691
684.86
677.957
693.277
688.81
682.921
676.54
695.096
690.615
684.782
677.873
693.199
688.72
682.831
676.484
694.99
690.504
684.743
677.863
693.097
688.602
682.739
676.41
694.806
690.324
684.67
677.862
692.923
688.408
682.582
676.285
693.984
689.635
684.059
677.356
692.288
687.869
682.16
675.891
694.456
690.015
684.385
677.621
692.692
688.196
682.419
676.141
693.4
689.188
683.656
676.984
691.679
687.402
681.78
675.582
692.744
688.715
683.288
676.674
690.942
686.869
681.374
675.246
657.513
644.919
634.531
626.381
620.412
656.755
644.336
634
625.875
619.92
657.501
644.901
634.52
626.376
620.409
656.747
644.334
634.01
625.892
619.94
657.543
644.896
634.517
626.379
620.415
657.098
644.658
634.332
626.212
620.257
656.585
644.235
633.958
625.868
619.927
656.414
644.149
633.919
625.852
619.922
657.443
644.831
634.477
626.354
620.396
656.815
643.983
633.633
625.536
619.601
657.449
644.709
634.328
626.199
620.242
656.759
643.869
633.505
625.404
619.469
657.236
644.702
634.384
626.278
620.329
656.557
643.782
633.466
625.388
619.462
657.093
644.625
634.347
626.263
620.325
656.325
643.608
633.332
625.275
619.361
657.506
644.691
634.272
626.122
620.157
656.735
643.746
633.336
625.211
619.267
657.458
644.632
634.219
626.074
620.113
656.704
643.713
633.308
625.187
619.244
657.339
644.484
634.081
625.947
619.991
656.597
643.61
633.217
625.105
619.167
656.997
644.073
633.685
625.569
619.623
656.336
643.371
633
624.902
618.971
656.437
643.515
633.153
625.058
619.13
637.854
635.824
637.556
635.482
636.87
634.748
635.77
633.704
633.996
632.237
629.464
627.169
631.509
629.519
627.688
625.146
626.067
623.48
611.906
586.65
567.093
552.857
543.798
612.491
586.963
567.152
552.812
543.596
611.638
586.464
566.962
552.758
543.717
612.144
586.703
567.01
552.653
543.49
611.09
586.092
566.701
552.562
543.552
611.613
586.348
566.764
552.469
543.336
610.237
585.52
566.299
552.254
543.291
610.827
585.829
566.401
552.193
543.101
609.023
584.722
565.731
551.813
542.912
609.813
585.17
565.935
551.832
542.79
606.084
582.72
564.277
550.683
541.952
606.623
583.056
564.427
550.686
541.843
607.581
583.778
565.053
551.286
542.46
608.355
584.244
565.28
551.332
542.374
604.655
581.652
563.473
550.05
541.413
604.954
581.833
563.525
549.99
541.261
603.252
580.568
562.641
549.387
540.842
603.404
580.606
562.611
549.269
540.629
686.878
684.064
686.334
689.288
693.71
691.968
693.69
691.688
690.742
688.685
690.799
689.04
652.888
653.418
654.796
657.005
659.999
663.623
652.785
653.288
654.597
656.668
659.409
662.65
651.591
649.733
652.193
650.42
653.738
652.164
656.236
655.029
659.593
658.719
663.502
662.549
667.538
671.295
674.589
677.381
679.534
681.125
666.134
669.557
672.682
675.358
677.473
678.977
655.14
656.034
655.878
654.669
652.415
655.679
656.579
656.429
655.222
652.966
657.077
657.993
657.853
656.648
654.385
659.32
660.261
660.137
658.938
656.662
662.364
663.344
663.249
662.059
659.77
666.056
667.095
667.045
665.877
663.575
655.039
655.935
655.782
654.577
652.325
655.551
656.454
656.307
655.104
652.851
656.88
657.8
657.664
656.465
654.205
658.985
659.931
659.813
658.62
656.35
661.773
662.758
662.67
661.489
659.208
665.079
666.12
666.076
664.916
662.626
653.83
654.717
654.56
653.356
651.113
651.955
652.834
652.677
651.481
649.254
654.441
655.335
655.183
653.981
651.735
652.652
653.54
653.388
652.193
649.962
656.008
656.918
656.775
655.574
653.319
654.42
655.324
655.183
653.99
651.748
658.543
659.48
659.355
658.158
655.889
657.327
658.261
658.139
656.95
654.692
661.953
662.932
662.837
661.649
659.364
661.076
662.058
661.97
660.792
658.517
665.936
666.975
666.926
665.759
663.46
664.981
666.025
665.987
664.832
662.545
670.065
671.188
671.208
670.078
667.772
673.942
675.179
675.301
674.235
671.938
677.391
678.784
679.046
678.076
675.807
680.389
681.982
682.421
681.576
679.355
682.776
684.567
685.17
684.44
682.268
684.525
686.43
687.115
686.441
684.29
668.648
669.764
669.784
668.66
666.366
672.174
673.39
673.496
672.425
670.136
675.423
676.761
676.975
675.975
673.702
678.238
679.71
680.043
679.124
676.877
680.484
682.077
682.511
681.66
679.435
682.066
683.723
684.208
683.387
681.168
653.215
654.399
656.434
659.305
662.969
667.27
653.109
654.259
656.213
658.922
662.281
666.09
651.931
650.088
653.213
651.487
655.444
653.953
658.643
657.565
662.709
661.995
667.397
666.711
671.802
675.955
679.281
681.508
682.405
682.16
670.022
673.66
676.649
678.724
679.752
679.785
655.469
656.362
656.205
654.993
652.736
656.665
657.565
657.409
656.194
653.927
658.724
659.637
659.487
658.267
655.985
661.629
662.565
662.425
661.203
658.9
665.343
666.311
666.191
664.967
662.641
669.71
670.727
670.638
669.421
667.071
655.364
656.26
656.106
654.897
652.642
656.526
657.429
657.276
656.065
653.8
658.504
659.42
659.274
658.059
655.781
661.248
662.187
662.053
660.836
658.54
664.654
665.627
665.513
664.299
661.982
668.525
669.546
669.465
668.26
665.924
654.172
655.059
654.9
653.693
651.446
652.312
653.191
653.033
651.834
649.602
655.467
656.36
656.203
654.992
652.735
653.725
654.612
654.455
653.252
651.01
657.723
658.631
658.479
657.263
654.988
656.219
657.121
656.97
655.76
653.499
660.96
661.891
661.75
660.529
658.232
659.873
660.801
660.662
659.447
657.16
665.079
666.045
665.923
664.699
662.375
664.36
665.326
665.207
663.989
661.672
669.835
670.85
670.758
669.538
667.184
669.144
670.159
670.07
668.855
666.51
674.327
675.413
675.375
674.18
671.811
678.585
679.766
679.808
678.658
676.285
682.049
683.366
683.526
682.453
680.099
684.468
685.971
686.299
685.345
683.039
685.6
687.314
687.824
687.006
684.768
685.54
687.413
688.061
687.352
685.176
672.535
673.621
673.591
672.409
670.058
676.269
677.441
677.483
676.342
673.989
679.372
680.655
680.795
679.718
677.379
681.58
682.996
683.255
682.261
679.952
682.741
684.289
684.667
683.759
681.489
682.865
684.505
684.968
684.126
681.891
682.941
683.16
676.512
671.881
672.089
670.761
674.932
686.264
685.208
685.519
682.395
682.06
682.996
679.782
679.441
677.608
686.271
685.691
682.369
681.823
683.895
683.107
680.369
679.917
676.306
675.981
679.673
679.445
684.589
684.226
686.007
684.399
683.918
685.583
680.805
677.187
681.763
688.274
690.91
691.976
691.706
690.067
687.134
689.378
690.311
689.831
687.787
679.131
680.296
680.319
679.151
676.767
674.396
675.471
675.421
674.216
671.841
674.62
675.714
675.685
674.495
672.127
673.259
674.321
674.265
673.058
670.69
677.508
678.634
678.626
677.441
675.057
691
693.389
694.318
693.904
692.219
689.792
692.07
692.893
692.381
690.564
689.007
690.931
691.608
690.903
688.709
686.477
688.493
689.137
688.474
686.403
685
686.475
686.771
685.789
683.464
686.185
687.871
688.348
687.498
685.238
682.586
683.939
684.132
683.081
680.735
682.297
683.706
683.955
682.948
680.627
680.354
681.658
681.814
680.744
678.402
690.922
693.269
694.167
693.73
692.001
689.008
690.803
691.374
690.591
688.353
685.261
686.688
686.942
685.927
683.583
684.653
686.019
686.217
685.162
682.801
686.899
688.427
688.767
687.812
685.492
686.022
687.47
687.742
686.738
684.396
683.136
684.443
684.59
683.502
681.134
682.64
683.903
684.01
682.894
680.514
678.957
680.163
680.229
679.096
676.731
678.595
679.759
679.784
678.62
676.241
682.425
683.722
683.863
682.774
680.409
682.161
683.418
683.521
682.403
680.025
689.602
692.072
693.054
692.702
691
687.878
689.905
690.663
690.037
687.896
690.013
692.129
692.956
692.423
690.501
687.623
689.349
689.868
689.052
686.804
686.944
688.497
688.862
687.928
685.618
688.932
690.757
691.365
690.615
688.394
683.576
684.886
685.035
683.947
681.575
679.823
681.005
681.044
679.885
677.502
684.585
685.943
686.134
685.074
682.711
681.135
683.424
684.365
684.027
682.519
679.561
683.794
683.568
687.822
687.943
683.319
682.91
687.63
687.357
679.429
674.909
679.363
675.303
678.899
679.086
676.014
683.945
683.702
688.024
688.168
683.434
683.024
687.798
687.452
679.23
674.479
679.183
674.995
678.751
679.049
675.759
683.939
683.679
688.117
688.286
683.397
682.973
687.852
687.494
679.065
673.321
679.017
674.002
678.586
678.907
674.936
683.163
682.911
687.431
687.609
682.612
682.128
687.158
686.756
677.981
671.911
677.987
672.645
677.616
677.999
673.771
681.723
681.484
685.964
686.139
681.194
680.636
685.7
685.305
676.522
670.845
676.558
671.431
676.256
676.538
672.53
679.1
678.883
683.238
683.406
678.649
678.178
682.987
682.632
674.212
668.993
674.293
669.544
674.046
674.349
670.651
694.417
694.401
691.466
691.52
694.268
694.139
691.332
691.143
696.497
698.045
696.36
697.78
696.268
695.952
697.26
694.66
694.608
691.687
691.768
694.423
694.225
691.506
691.294
696.835
698.116
696.641
697.794
696.438
696.026
697.243
694.803
694.706
691.809
691.925
694.453
694.194
691.573
691.289
696.748
697.572
696.514
697.28
696.205
695.777
696.767
694.108
693.981
691.131
691.267
693.685
693.354
690.868
690.579
695.854
696.234
695.588
695.965
695.184
694.684
695.481
692.548
692.407
689.621
689.762
692.053
691.626
689.357
689.043
694.108
694.236
693.823
694.019
693.375
692.825
693.612
689.651
689.508
686.806
686.946
689.157
688.778
686.543
686.245
691.174
691.597
690.903
691.362
690.524
690.051
690.949
658.737
659.455
660.832
662.017
663.863
665.081
668.092
669.094
667.264
668.409
663.952
665.101
661.545
662.623
659.62
660.39
664.779
666.243
666.861
668.925
669.922
671.809
671.854
674.297
656.108
651.773
656.884
652.842
658.06
653.884
659.35
655.415
662.425
660.048
664.532
661.524
656.431
658.961
669.485
673.371
671.509
674.453
674.191
677.502
676.606
679.166
665.057
669.086
667.269
670.366
661.548
665.452
646.794
643.897
648.878
645.875
648.915
645.264
651.43
648.081
651.939
646.986
655.779
651.178
658.811
654.259
662.302
657.657
665.766
666.394
669.105
669.392
672.563
673.369
675.269
676.076
663.196
662.314
659.317
659.152
671.983
671.926
674.631
674.073
677.754
678.4
680.123
680.425
666.43
664.978
669.347
667.178
657.432
651.9
655.356
649.18
653.276
647.639
652.08
645.69
660.92
655.516
658.091
652.011
664.056
658.707
660.293
654.287
639.782
633.371
638.768
632.42
641.745
635.762
639.841
633.775
644.96
640.324
641.615
636.6
661.079
669.032
653.893
648.508
642.777
667.823
659.438
650.88
645.132
638.964
669.988
662.483
655.266
648.503
641.977
627.486
624.552
624.404
621.794
630.475
627.11
626.408
623.587
635.568
631.772
629.799
626.443
665.814
662.574
656.686
652.388
648.301
643.898
641.657
637.334
633.062
628.803
668.448
665.751
660.076
655.578
652.285
647.249
644.623
639.266
635.125
629.596
664.134
659.151
667.811
663.371
672.378
670.697
675.706
674.639
659.507
653.774
655.937
649.851
670.98
666.525
673.106
668.87
678.447
677.434
680.485
679.71
662.783
656.938
664.903
659.202
650.164
643.373
638.798
630.721
647.28
640.142
636.83
628.89
652.834
646.254
640.679
632.737
655.374
648.726
643.281
635.751
623.561
622.285
620.057
622.994
622.425
620.391
625.492
623.895
621.508
624.441
623.73
621.519
629.312
627.194
624.489
626.588
625.523
623.019
658.628
654.23
649.692
647.818
644.009
640.067
639.705
636.444
633.021
633.903
631.164
627.928
628.336
626.858
623.903
662.035
657.066
651.904
649.651
644.555
639.553
641.288
636.809
632.382
634.611
631.218
627.343
628.556
626.627
623.2
679.074
680.612
680.565
682.588
674.945
676.837
676.634
679.02
679.793
682.963
680.177
683.134
680.798
683.634
681.532
684.198
683.829
682.384
684.68
682.975
684.264
685.482
684.323
686.366
681.093
683.336
684.866
686.828
686.124
688
686.26
688.191
686.146
688.958
685.634
688.252
686.648
689.529
686.604
689.243
687.093
690.245
688
690.852
688.719
691.207
690.399
692.414
682.616
683.946
684.601
686.092
678.246
679.392
680.53
681.774
687.439
689.229
685.672
687.321
686.557
687.981
688.522
689.677
682.718
683.862
684.86
685.727
689.185
690.921
691.004
692.446
689.791
692.258
691.272
692.717
688.331
691.008
689.585
691.292
691.249
693.4
692.776
693.976
692.861
694.632
694.126
695.094
685.876
684.318
688.566
686.969
685.96
684.308
688.798
687.133
686.058
684.564
689.156
687.658
681.052
675.865
684.315
686.882
689.578
674.74
679.863
682.878
685.391
688.267
676.851
681.899
685.53
687.967
689.907
681.734
678.239
684.366
680.977
681.95
678.606
684.781
681.518
682.483
679.293
685.587
682.52
673.217
670.468
678.641
675.815
681.737
678.841
684.11
681.169
686.841
683.921
675.84
674.113
681.008
679.257
684.535
682.484
686.799
684.335
688.515
685.537
684.072
683.269
686.258
686.007
679.362
678.705
681.946
682.002
689.029
688.069
687.128
685.713
688
688.2
689.701
690.096
684.02
684.506
685.903
686.62
690.614
690.049
692.155
691.762
690.714
689.011
691.452
688.966
688.973
686.87
690.075
687.292
692.188
690.858
692.681
690.498
693.483
692.319
693.823
691.928
673.552
668.957
664.706
675.221
670.015
665.737
674.195
669.533
665.175
675.974
670.722
666.251
675.115
670.514
666.072
677.195
671.67
666.886
666.815
662.379
657.728
672.053
667.424
662.626
675.014
670.168
665.262
677.115
672.266
667.494
678.53
672.688
667.459
671.113
666.251
660.938
676.099
671.104
665.715
678.89
673.587
668.012
680.142
674.562
668.928
679.853
673.691
667.93
689.937
687.528
681.753
671.499
689.08
686.515
680.554
670.219
690.359
687.865
682.074
671.729
689.863
687.14
681.121
670.752
690.892
688.28
682.721
672.668
691.202
688.284
682.353
672.078
691.152
687.933
681.577
671.039
691.859
688.284
681.653
671.012
692.198
689.13
683.325
673.122
692.04
688.813
683.49
674.297
691.263
688.501
683.252
673.785
691.011
688.093
683.149
674.499
692.991
689.62
683.355
672.771
692.957
689.454
683.815
674.402
693.818
690.149
683.648
673.095
693.782
690.03
684.215
674.83
689.74
687.582
682.321
672.669
688.456
686.615
682.113
673.682
689.864
687.647
682.463
672.878
688.519
686.604
682.129
673.782
690.04
687.71
682.688
673.374
688.804
686.722
682.237
673.988
690.107
687.632
682.855
674.078
689.08
686.815
682.382
674.36
690.011
687.375
682.808
674.759
686.523
684.961
680.904
674.918
684.378
682.993
678.895
673.365
686.764
685.09
681.005
675.038
684.627
683.112
678.963
673.413
687.22
685.338
681.159
675.149
685.08
683.339
679.088
673.523
687.885
685.716
681.449
675.406
685.7
683.669
679.292
673.677
688.754
686.217
681.803
675.69
686.434
684.055
679.517
673.838
690.466
687.224
682.317
675.952
688.354
685.198
680.252
674.35
689.615
686.712
682.045
675.801
687.387
684.615
679.876
674.096
691.253
687.712
682.575
676.084
689.276
685.764
680.606
674.627
692.024
688.22
682.924
676.368
690.147
686.325
680.984
674.929
656.25
644.152
634.054
626.063
620.165
655.535
643.585
633.529
625.556
619.67
656.355
644.205
634.088
626.088
620.186
655.704
643.697
633.614
625.629
619.736
656.532
644.285
634.138
626.126
620.219
656.229
644.129
634.003
625.994
620.088
655.98
643.866
633.729
625.715
619.81
656.185
644.01
633.832
625.795
619.879
656.659
644.357
634.184
626.158
620.245
656.121
643.568
633.377
625.366
619.469
656.524
644.153
633.985
625.97
620.065
655.93
643.376
633.2
625.201
619.312
656.694
644.374
634.181
626.143
620.225
656.083
643.499
633.291
625.271
619.372
656.905
644.511
634.277
626.217
620.289
656.16
643.51
633.271
625.236
619.33
656.193
643.907
633.789
625.803
619.911
655.388
642.954
632.851
624.892
619.022
656.22
643.89
633.759
625.768
619.875
655.408
642.945
632.833
624.87
618.998
656.226
643.819
633.67
625.673
619.779
655.417
642.911
632.785
624.817
618.944
656.005
643.484
633.321
625.326
619.435
655.294
642.755
632.619
624.649
618.775
655.524
642.973
632.819
624.836
618.958
611.681
609.956
612.538
610.766
614.04
612.071
615.974
613.653
617.952
615.233
621.182
618.055
619.545
616.475
622.788
619.789
624.452
621.737
593.236
573.622
557.586
545.45
537.427
593.536
573.791
557.579
545.368
537.214
593.626
573.829
557.717
545.545
537.509
593.881
573.941
557.699
545.408
537.271
594.372
574.243
557.984
545.74
537.674
594.602
574.34
557.955
545.596
537.428
595.39
574.84
558.379
546.032
537.919
595.533
574.885
558.314
545.859
537.649
596.596
575.606
558.901
546.42
538.246
596.553
575.532
558.757
546.192
537.931
599.223
577.49
560.28
547.494
539.181
598.954
577.241
560.004
547.174