/*--------------------------------*- C++ -*----------------------------------*\
  =========                 |
  \\      /  F ield         | OpenFOAM: The Open Source CFD Toolbox
   \\    /   O peration     | Website:  https://openfoam.org
    \\  /    A nd           | Version:  12
     \\/     M anipulation  |
\*---------------------------------------------------------------------------*/
FoamFile
{
    format      ascii;
    class       volScalarField;
    location    "310";
    object      T;
}
// * * * * * * * * * * * * * * * * * * * * * * * * * * * * * * * * * * * * * //

dimensions      [];

internalField   nonuniform List<scalar> 
4480
(
2.86967e-08
2.87008e-06
0.00147951
0.024843
0.0902914
0.18028
0.274404
0.361551
0.437532
0.501756
0.555181
0.599269
0.635506
0.665234
0.689581
0.709474
0.725664
0.738756
0.74923
0.757475
0.763804
0.768469
0.771672
0.773575
0.774314
0.773998
0.772716
0.770911
0.769083
0.767223
0.765322
0.763369
0.761354
0.759267
0.757098
0.754836
0.752471
0.749992
0.747383
0.744637
0.741741
0.738677
0.735431
0.731993
0.728343
0.724464
0.720339
0.715954
0.711284
0.706309
0.701015
0.695381
0.689376
0.682985
0.676182
0.668941
0.661244
0.653065
0.644372
0.635145
0.625352
0.614968
0.603961
0.592303
0.579952
0.566881
0.553035
0.538379
0.522843
0.506376
0.488897
0.470336
0.450617
0.429676
0.407471
0.383999
0.359311
0.333526
0.306842
0.279535
0.251957
0.224512
0.197637
0.171904
0.147737
0.125469
0.105344
0.0875073
0.0720012
0.0587754
0.0477016
0.0385938
0.0312288
0.0253669
0.0207697
0.0172126
0.0144948
0.0124437
0.0109171
0.00980184
0.00901179
0.00848434
0.0081769
0.00806435
0.00813602
0.00839477
0.00885654
0.00955102
0.0105238
0.0118402
0.0135899
0.0158945
0.0189158
0.022868
0.0280284
0.0347529
0.0434862
0.0547718
0.0692612
0.0877728
0.111557
0.142877
0.185555
0.247968
0.360251
0.551594
0.711776
0.85642
0.829347
0.613479
0.446279
0.264594
0.147977
0.0825819
0.0431019
0.0201326
0.00791337
0.00232124
0.000400654
2.10629e-05
1.42705e-08
0.000152808
0.0162897
0.111085
0.259402
0.406429
0.528875
0.623689
0.69504
0.748378
0.78843
0.818805
0.842126
0.860241
0.874446
0.885676
0.894588
0.901663
0.907255
0.911633
0.915
0.917505
0.919271
0.920388
0.920932
0.920956
0.920506
0.919449
0.917726
0.915398
0.912528
0.909176
0.9054
0.901256
0.896788
0.892048
0.887073
0.8819
0.876557
0.871071
0.865466
0.859756
0.85395
0.848062
0.842097
0.836051
0.829929
0.823724
0.817429
0.811037
0.804536
0.79792
0.79117
0.784272
0.777216
0.769981
0.762559
0.754927
0.74707
0.738978
0.730623
0.722002
0.713087
0.703868
0.694328
0.684453
0.674218
0.663605
0.6526
0.641181
0.629318
0.616988
0.604159
0.590805
0.576883
0.562366
0.547217
0.531398
0.514889
0.497655
0.479678
0.460953
0.441472
0.421306
0.400538
0.379247
0.357547
0.335587
0.313532
0.291582
0.269947
0.248847
0.228504
0.209129
0.190912
0.174013
0.158564
0.144654
0.132339
0.121641
0.112552
0.105043
0.099072
0.0945939
0.0915722
0.0899829
0.0898296
0.0911462
0.0940094
0.098542
0.104921
0.113383
0.12423
0.137828
0.154609
0.175069
0.199752
0.229254
0.264226
0.305441
0.353943
0.411207
0.478995
0.559005
0.651686
0.750154
0.837945
0.902119
0.872617
0.722549
0.572628
0.427144
0.299087
0.195301
0.116724
0.0619639
0.0277566
0.00953356
0.00206379
0.000172371
3.67064e-06
0.00221134
0.070803
0.255419
0.44999
0.601739
0.707712
0.779198
0.827488
0.860789
0.884452
0.901837
0.914999
0.925211
0.933273
0.939711
0.944879
0.949029
0.952349
0.954978
0.957027
0.958577
0.959701
0.960451
0.960868
0.960985
0.960828
0.960354
0.959515
0.958324
0.956791
0.954919
0.952714
0.950177
0.947323
0.944155
0.940689
0.936941
0.932925
0.928659
0.924163
0.919455
0.914553
0.909474
0.904233
0.89885
0.893332
0.887694
0.881941
0.876085
0.870131
0.864082
0.857936
0.851696
0.845366
0.838934
0.832407
0.825774
0.819032
0.812178
0.805204
0.798107
0.790876
0.78351
0.776001
0.768339
0.760523
0.752542
0.744388
0.736059
0.727535
0.718819
0.709894
0.700753
0.691378
0.681763
0.671894
0.66175
0.651319
0.640589
0.629533
0.618142
0.606387
0.594255
0.581736
0.568824
0.55551
0.541788
0.527662
0.513153
0.498289
0.483119
0.467709
0.45214
0.436521
0.420981
0.405663
0.390732
0.376371
0.362771
0.350129
0.338648
0.328536
0.319991
0.313215
0.308404
0.305746
0.305439
0.30768
0.312666
0.320606
0.331713
0.346206
0.364298
0.386189
0.412047
0.442004
0.476126
0.51442
0.556824
0.603188
0.653191
0.706113
0.760513
0.813952
0.862721
0.902028
0.926206
0.903966
0.802933
0.688317
0.563897
0.436017
0.313586
0.205742
0.119631
0.0588262
0.0224684
0.00562269
0.000595025
9.38975e-05
0.0143713
0.181608
0.429086
0.621707
0.744512
0.818595
0.863648
0.892226
0.911508
0.925414
0.936035
0.944475
0.951326
0.956937
0.961537
0.965301
0.968356
0.970815
0.97277
0.974298
0.975463
0.976317
0.976907
0.977264
0.977413
0.977376
0.977138
0.976684
0.976019
0.975145
0.974059
0.972757
0.971234
0.969482
0.967499
0.965281
0.962821
0.960125
0.957192
0.954029
0.950641
0.947037
0.943228
0.939224
0.935041
0.930686
0.926176
0.92152
0.916734
0.911828
0.906809
0.90169
0.896477
0.891181
0.885806
0.880357
0.874836
0.869252
0.863603
0.857895
0.852124
0.846297
0.840412
0.834466
0.828461
0.822399
0.816272
0.810085
0.80383
0.797507
0.791115
0.784648
0.778106
0.77148
0.764768
0.757968
0.751078
0.744086
0.736988
0.729782
0.722467
0.715037
0.70746
0.699756
0.691917
0.683938
0.675822
0.667566
0.65917
0.650641
0.641994
0.633247
0.624422
0.615561
0.606704
0.597918
0.589271
0.580858
0.572789
0.565191
0.558205
0.551999
0.54675
0.542655
0.539914
0.538747
0.539364
0.541981
0.546801
0.554015
0.563784
0.576239
0.591464
0.609487
0.630272
0.653712
0.679616
0.707706
0.737607
0.768832
0.800728
0.832426
0.862765
0.890288
0.91323
0.929403
0.935839
0.919831
0.852939
0.769387
0.66957
0.553812
0.427698
0.301692
0.188495
0.0995717
0.0409483
0.0111551
0.00133332
0.000949286
0.0542183
0.337019
0.597044
0.752286
0.835412
0.880355
0.906383
0.923091
0.935128
0.944645
0.952573
0.959278
0.964928
0.969633
0.973498
0.976634
0.979146
0.981128
0.98267
0.98385
0.984731
0.98537
0.985807
0.986078
0.986206
0.98621
0.986084
0.985809
0.98539
0.984827
0.984121
0.98327
0.982269
0.981114
0.979797
0.97831
0.97665
0.974808
0.972784
0.97057
0.96817
0.96558
0.962806
0.95985
0.95672
0.953423
0.949967
0.946362
0.942618
0.938746
0.934756
0.93066
0.926467
0.92219
0.917838
0.913419
0.908938
0.90441
0.899836
0.895225
0.89058
0.885912
0.881221
0.876506
0.87178
0.867037
0.862281
0.857515
0.852739
0.847952
0.843152
0.838345
0.833524
0.828693
0.823845
0.818987
0.814109
0.80921
0.804298
0.799364
0.79441
0.78944
0.784431
0.779398
0.774342
0.769265
0.76417
0.759067
0.753961
0.748863
0.743784
0.738745
0.733762
0.728861
0.724074
0.719438
0.714998
0.710806
0.706926
0.703426
0.700391
0.697916
0.696103
0.695066
0.694929
0.695818
0.697864
0.701195
0.705936
0.712187
0.720041
0.72955
0.740739
0.753583
0.768004
0.783878
0.801011
0.819152
0.837972
0.857069
0.875948
0.893994
0.91046
0.924445
0.934857
0.940274
0.938654
0.925348
0.880674
0.819457
0.742832
0.645896
0.528017
0.39583
0.263019
0.147566
0.0642451
0.0184738
0.00234922
0.00535214
0.139439
0.507782
0.731949
0.837184
0.886508
0.912061
0.927474
0.938478
0.947519
0.955516
0.962623
0.968777
0.973951
0.978178
0.981557
0.984204
0.986234
0.987764
0.988887
0.989693
0.990255
0.990633
0.990873
0.991008
0.991066
0.99106
0.990993
0.990822
0.990554
0.990188
0.989722
0.989154
0.988481
0.987697
0.986796
0.985774
0.984622
0.983335
0.98191
0.98034
0.978619
0.976747
0.974723
0.972547
0.970218
0.967743
0.965124
0.96237
0.959485
0.956479
0.953361
0.950141
0.946827
0.943429
0.939959
0.936428
0.932841
0.929208
0.925541
0.921849
0.918132
0.914405
0.910669
0.90693
0.903196
0.899466
0.895747
0.892044
0.888352
0.884677
0.881018
0.877379
0.87376
0.870155
0.866571
0.863002
0.859453
0.855922
0.852405
0.848905
0.845426
0.841967
0.838515
0.835072
0.831647
0.828246
0.82487
0.821526
0.818223
0.814975
0.811789
0.808682
0.80567
0.802776
0.800022
0.797437
0.795055
0.792906
0.791033
0.789488
0.788314
0.787574
0.787329
0.787641
0.788585
0.790224
0.792637
0.795887
0.800034
0.805134
0.811216
0.818299
0.826375
0.835409
0.845323
0.856015
0.867331
0.879079
0.891009
0.902821
0.914147
0.92454
0.933463
0.940266
0.944136
0.944002
0.938361
0.925046
0.894684
0.8478
0.789099
0.711484
0.6086
0.480529
0.337145
0.199554
0.0911816
0.0272832
0.00359622
0.0201923
0.272229
0.662305
0.823026
0.885104
0.9128
0.928042
0.938529
0.947248
0.955363
0.963069
0.970035
0.975964
0.980774
0.984543
0.987411
0.989524
0.991024
0.992037
0.992678
0.993044
0.993219
0.99327
0.993254
0.993206
0.99315
0.993098
0.993056
0.992961
0.992814
0.992611
0.992345
0.992013
0.991607
0.991122
0.990548
0.989882
0.989116
0.988243
0.987261
0.986162
0.984941
0.983598
0.982129
0.980534
0.978809
0.976959
0.974984
0.972892
0.970682
0.968364
0.965945
0.963431
0.96083
0.958153
0.955409
0.952603
0.949751
0.946858
0.943933
0.940985
0.938021
0.935049
0.932075
0.929109
0.926153
0.923208
0.920285
0.917382
0.914506
0.911656
0.908836
0.906041
0.903281
0.900551
0.897851
0.895181
0.892541
0.889935
0.887362
0.884814
0.882303
0.879829
0.877369
0.874939
0.87254
0.870174
0.867845
0.865562
0.863329
0.861153
0.859048
0.857026
0.855094
0.853275
0.851581
0.850039
0.848668
0.847492
0.846544
0.845851
0.845454
0.845385
0.845682
0.84639
0.847547
0.849196
0.851377
0.854123
0.85747
0.861434
0.866029
0.871253
0.877087
0.883487
0.890387
0.897698
0.905299
0.913031
0.920698
0.928061
0.934827
0.940645
0.945096
0.947656
0.947681
0.944329
0.93646
0.922578
0.899854
0.862844
0.816171
0.754417
0.668053
0.550798
0.405421
0.251916
0.120258
0.0372409
0.00505114
0.0573755
0.433713
0.777465
0.875027
0.909607
0.926214
0.936734
0.945179
0.953151
0.961215
0.969107
0.976093
0.981777
0.986147
0.989372
0.991654
0.993169
0.994071
0.994498
0.994576
0.994419
0.994126
0.993781
0.993443
0.993157
0.992946
0.992822
0.992782
0.992749
0.992715
0.99267
0.992603
0.992504
0.992361
0.992162
0.9919
0.991562
0.991143
0.990637
0.990033
0.989332
0.988526
0.987612
0.986588
0.985453
0.984208
0.982853
0.981387
0.979815
0.978143
0.976372
0.974509
0.97256
0.970535
0.968437
0.966277
0.964063
0.961803
0.959506
0.957181
0.954837
0.952475
0.95011
0.947746
0.945384
0.943038
0.940708
0.938401
0.936115
0.933856
0.931629
0.929435
0.927269
0.925141
0.923043
0.920981
0.918954
0.916961
0.915005
0.913082
0.911192
0.909343
0.907527
0.905744
0.903985
0.902259
0.900567
0.898911
0.8973
0.895739
0.894228
0.892781
0.891407
0.89011
0.888906
0.88781
0.886833
0.885995
0.885311
0.884806
0.884496
0.884412
0.884568
0.885
0.885731
0.886783
0.888189
0.889962
0.892131
0.894704
0.897695
0.901096
0.904899
0.90908
0.913596
0.918388
0.923374
0.92845
0.93348
0.938306
0.942718
0.946482
0.949302
0.95083
0.950633
0.94818
0.942788
0.933583
0.919483
0.899287
0.870248
0.831039
0.780502
0.708585
0.604829
0.463981
0.301313
0.149879
0.048005
0.00671523
0.133628
0.591143
0.845969
0.901067
0.922133
0.933723
0.942137
0.949755
0.957632
0.966018
0.97426
0.981231
0.986542
0.990355
0.99296
0.994604
0.995466
0.995699
0.99545
0.994863
0.994075
0.993212
0.992373
0.991636
0.991051
0.990646
0.990427
0.990379
0.990405
0.990491
0.990619
0.99077
0.990925
0.991068
0.991181
0.991246
0.991253
0.991188
0.991042
0.990811
0.990484
0.990062
0.989538
0.98891
0.988178
0.987343
0.986403
0.985364
0.984227
0.982995
0.981673
0.980266
0.97878
0.977222
0.975596
0.973914
0.972178
0.970401
0.968587
0.966746
0.964887
0.963014
0.961132
0.959252
0.957378
0.955513
0.953667
0.951838
0.950032
0.948254
0.946503
0.944781
0.943092
0.941431
0.939806
0.938215
0.936656
0.935132
0.93364
0.932183
0.930756
0.929368
0.928013
0.926693
0.925392
0.924122
0.922884
0.92168
0.920514
0.919386
0.918308
0.917276
0.916308
0.915402
0.914572
0.913826
0.913174
0.912626
0.912202
0.911909
0.911769
0.911791
0.911996
0.9124
0.913022
0.913874
0.914978
0.91634
0.917973
0.91988
0.922068
0.924519
0.927225
0.930154
0.933267
0.936505
0.939802
0.943057
0.946155
0.948954
0.951279
0.952926
0.953639
0.95312
0.951006
0.946845
0.940079
0.93001
0.915823
0.896643
0.871661
0.838592
0.795276
0.734233
0.643477
0.510952
0.345203
0.178596
0.0592722
0.00860849
0.25979
0.715899
0.876604
0.914021
0.929306
0.9385
0.945862
0.953175
0.961244
0.970136
0.978782
0.985607
0.990393
0.993561
0.995514
0.99649
0.996643
0.996111
0.995059
0.993663
0.992097
0.990523
0.989073
0.987843
0.986893
0.986251
0.985919
0.985857
0.985953
0.986182
0.986517
0.986928
0.987384
0.987859
0.988327
0.988767
0.989156
0.989481
0.989728
0.989888
0.989954
0.989919
0.989779
0.989534
0.989185
0.988733
0.988175
0.987517
0.986762
0.985916
0.984978
0.983959
0.982864
0.981696
0.980466
0.979181
0.977842
0.976464
0.975049
0.973604
0.972141
0.970663
0.969176
0.967687
0.966202
0.964725
0.96326
0.961814
0.960384
0.958979
0.957594
0.95624
0.954912
0.953614
0.952343
0.951102
0.949893
0.948711
0.947562
0.94644
0.945351
0.944292
0.943261
0.942264
0.941284
0.940332
0.939406
0.938506
0.937637
0.936805
0.936008
0.935252
0.934541
0.933885
0.933285
0.93275
0.932285
0.931902
0.931611
0.931416
0.931336
0.931374
0.931545
0.931862
0.932332
0.932967
0.933774
0.934758
0.935929
0.937279
0.938807
0.940499
0.942337
0.944293
0.946325
0.948381
0.950393
0.952275
0.953924
0.95521
0.955984
0.956058
0.955216
0.953193
0.94968
0.944283
0.936539
0.925873
0.911642
0.893155
0.869734
0.840514
0.802863
0.749207
0.669149
0.546229
0.382071
0.205276
0.0708003
0.0107654
0.39066
0.793797
0.896194
0.921755
0.933917
0.941787
0.948562
0.955811
0.964224
0.973728
0.982771
0.989289
0.993423
0.995914
0.997216
0.997499
0.996856
0.995418
0.993379
0.990973
0.988434
0.985975
0.983769
0.981937
0.980548
0.979634
0.979184
0.979112
0.979304
0.979719
0.980316
0.98105
0.981877
0.982757
0.983653
0.984532
0.985368
0.986139
0.986832
0.987426
0.987918
0.988302
0.988569
0.98872
0.988757
0.98868
0.988493
0.988199
0.987803
0.987309
0.986724
0.986052
0.985304
0.984481
0.983592
0.982644
0.981646
0.980604
0.979522
0.978413
0.97728
0.976128
0.974966
0.973798
0.97263
0.971466
0.970311
0.969165
0.968039
0.966926
0.965837
0.964768
0.963721
0.962699
0.961699
0.960729
0.95978
0.958859
0.957962
0.957088
0.956241
0.955424
0.954627
0.953859
0.95311
0.952379
0.951668
0.950981
0.950321
0.949683
0.949078
0.948502
0.947961
0.947461
0.947
0.946592
0.946236
0.945939
0.945706
0.94555
0.945472
0.94548
0.945579
0.945784
0.94609
0.946513
0.947049
0.947702
0.948473
0.949356
0.950342
0.951416
0.952554
0.953732
0.954909
0.95603
0.957038
0.957848
0.958368
0.958486
0.95806
0.956928
0.954894
0.951726
0.947149
0.940822
0.932346
0.92124
0.906967
0.888954
0.8666
0.839045
0.804262
0.756924
0.684727
0.570931
0.411405
0.229178
0.0824182
0.0132329
0.521549
0.839657
0.908781
0.927869
0.937316
0.944101
0.950531
0.95784
0.966683
0.976861
0.986287
0.992322
0.995718
0.997556
0.998236
0.997779
0.996196
0.993633
0.990351
0.986672
0.982918
0.97937
0.976247
0.973698
0.971803
0.970589
0.970032
0.969972
0.970304
0.970973
0.971913
0.973061
0.974354
0.975734
0.977151
0.978562
0.979931
0.981229
0.982432
0.983524
0.984493
0.985335
0.986046
0.98662
0.987065
0.987378
0.987567
0.987636
0.987591
0.987439
0.987186
0.98684
0.986409
0.985899
0.985318
0.984673
0.983974
0.983225
0.982436
0.981611
0.980759
0.979885
0.978996
0.978095
0.977192
0.976286
0.975384
0.974488
0.973602
0.972729
0.97187
0.971028
0.970203
0.969397
0.968611
0.967844
0.9671
0.966372
0.965665
0.96498
0.964315
0.963672
0.963047
0.962445
0.961856
0.961286
0.960727
0.960188
0.959667
0.959164
0.958683
0.958226
0.957794
0.957389
0.957017
0.956679
0.956379
0.956121
0.95591
0.955747
0.955638
0.955591
0.955606
0.955687
0.955837
0.956057
0.956347
0.956709
0.957137
0.957621
0.95815
0.958709
0.959275
0.959816
0.960293
0.960661
0.960858
0.960813
0.960434
0.959618
0.95824
0.956151
0.953175
0.949106
0.943697
0.936643
0.927598
0.916145
0.901819
0.884126
0.862512
0.836122
0.802992
0.758221
0.691427
0.586765
0.433471
0.249947
0.0940204
0.016071
0.636511
0.868068
0.917348
0.932233
0.940081
0.945876
0.951932
0.959357
0.968665
0.97956
0.989353
0.994743
0.997377
0.998638
0.998721
0.997418
0.994669
0.990677
0.985825
0.980557
0.975311
0.970446
0.966238
0.962862
0.960407
0.958889
0.95826
0.958252
0.958797
0.959812
0.961205
0.962885
0.964765
0.966768
0.968823
0.970875
0.972877
0.97479
0.976587
0.978248
0.979761
0.981116
0.982312
0.983348
0.984227
0.984953
0.985535
0.985977
0.986286
0.986475
0.986549
0.98652
0.986391
0.986176
0.985881
0.985515
0.985087
0.984602
0.984073
0.983499
0.982895
0.982261
0.981607
0.980937
0.980255
0.979568
0.978876
0.978187
0.977502
0.976823
0.976153
0.975494
0.974848
0.974212
0.973593
0.972986
0.972395
0.971819
0.971259
0.970715
0.970184
0.969668
0.969171
0.968688
0.968216
0.967755
0.967306
0.966868
0.966443
0.966029
0.965631
0.965251
0.964885
0.964536
0.964212
0.963909
0.963629
0.963379
0.963157
0.962966
0.962811
0.962693
0.96261
0.96257
0.962567
0.962601
0.962669
0.962772
0.962897
0.963037
0.963178
0.963302
0.963382
0.963394
0.963293
0.963036
0.962564
0.961812
0.960697
0.95912
0.956965
0.954103
0.950367
0.94557
0.939491
0.931854
0.922346
0.9106
0.896209
0.878728
0.857631
0.832063
0.800094
0.757093
0.693388
0.593918
0.446888
0.266095
0.105327
0.0193526
0.704525
0.894939
0.923398
0.935356
0.942039
0.947366
0.952938
0.960412
0.970194
0.981836
0.991999
0.996604
0.998507
0.999304
0.998782
0.99645
0.992214
0.986406
0.979589
0.972376
0.965336
0.958921
0.953466
0.949174
0.946131
0.944333
0.943702
0.943818
0.944678
0.946161
0.948144
0.950499
0.953112
0.955876
0.958702
0.961518
0.964261
0.966889
0.969371
0.971677
0.973799
0.975727
0.977459
0.978996
0.980344
0.98151
0.982504
0.983334
0.98401
0.984543
0.984945
0.985227
0.985397
0.985466
0.985444
0.985339
0.985166
0.984926
0.984631
0.984287
0.983901
0.983482
0.983035
0.982566
0.982077
0.981577
0.981067
0.980552
0.980034
0.979517
0.979004
0.978493
0.977988
0.977493
0.977006
0.976525
0.976058
0.975596
0.975148
0.974707
0.97428
0.97386
0.973454
0.973056
0.97267
0.972287
0.971911
0.971543
0.971179
0.970825
0.970476
0.970138
0.969809
0.969492
0.969185
0.968891
0.96861
0.968344
0.968096
0.967864
0.967647
0.96745
0.967268
0.967104
0.966953
0.966814
0.966681
0.966547
0.966406
0.966244
0.966047
0.965792
0.965459
0.965016
0.964424
0.96364
0.962611
0.961267
0.959535
0.957324
0.954528
0.951022
0.946657
0.941265
0.93463
0.926508
0.916615
0.904617
0.890148
0.872799
0.852064
0.827076
0.795918
0.75412
0.692511
0.59669
0.454454
0.276589
0.113416
0.0219744
0.749862
0.904403
0.927765
0.93754
0.943326
0.948294
0.953841
0.961036
0.971277
0.983681
0.994239
0.997962
0.999227
0.999679
0.998493
0.99485
0.988709
0.980621
0.971395
0.961853
0.95271
0.944524
0.937681
0.932407
0.928781
0.926768
0.926241
0.926593
0.927908
0.930024
0.932768
0.93597
0.939477
0.943157
0.946896
0.950602
0.954204
0.957649
0.960898
0.963925
0.96672
0.969273
0.971586
0.973663
0.975512
0.977143
0.97857
0.979801
0.980853
0.98174
0.982473
0.983065
0.98353
0.983878
0.984121
0.98427
0.984335
0.984325
0.98425
0.984118
0.983935
0.983709
0.983447
0.983155
0.982838
0.9825
0.982147
0.981781
0.981407
0.981025
0.98064
0.980256
0.97987
0.979485
0.979104
0.978726
0.97835
0.977981
0.977616
0.977257
0.976903
0.976558
0.976216
0.975881
0.975551
0.975221
0.974893
0.974569
0.974243
0.973924
0.973603
0.973286
0.972972
0.972664
0.972356
0.972054
0.971754
0.971459
0.97117
0.970881
0.970597
0.970315
0.97003
0.969745
0.969453
0.96915
0.96883
0.968483
0.9681
0.967668
0.96717
0.966587
0.965892
0.965055
0.964038
0.962801
0.96129
0.959444
0.95719
0.954444
0.951106
0.94706
0.942172
0.936273
0.929171
0.920642
0.910418
0.898194
0.883637
0.866364
0.845876
0.821296
0.790694
0.749691
0.689468
0.596179
0.457595
0.282602
0.118733
0.0238786
0.782783
0.911559
0.931268
0.938959
0.943998
0.948687
0.954295
0.961552
0.971912
0.985082
0.996093
0.998893
0.999644
0.999871
0.997884
0.992546
0.983988
0.973097
0.960992
0.948732
0.93719
0.927026
0.918681
0.912397
0.90824
0.906126
0.90559
0.906348
0.908339
0.911325
0.91507
0.91935
0.923965
0.928749
0.933561
0.938296
0.942871
0.947228
0.951326
0.955142
0.958664
0.961888
0.964819
0.967465
0.969838
0.971952
0.973825
0.975472
0.976908
0.978151
0.979218
0.980121
0.980876
0.981498
0.981999
0.982392
0.982687
0.982895
0.983028
0.983092
0.983095
0.983048
0.982956
0.982823
0.982658
0.982467
0.98225
0.982015
0.981764
0.9815
0.981226
0.980943
0.980654
0.980361
0.980065
0.979768
0.97947
0.979169
0.97887
0.978572
0.978272
0.977975
0.97768
0.977388
0.977095
0.976798
0.976501
0.976199
0.975897
0.97559
0.975281
0.97497
0.974653
0.974335
0.974013
0.973688
0.973355
0.97302
0.972678
0.972327
0.97197
0.971596
0.971211
0.970806
0.970375
0.969916
0.969419
0.968876
0.968274
0.967598
0.96683
0.965952
0.964937
0.963752
0.962368
0.960737
0.95881
0.956529
0.953826
0.95062
0.946821
0.942315
0.936977
0.93065
0.923151
0.914268
0.903754
0.891326
0.876675
0.859439
0.839118
0.814817
0.784579
0.744063
0.684702
0.593135
0.457334
0.285078
0.121732
0.025116
0.80744
0.916673
0.933269
0.939719
0.944102
0.94853
0.954238
0.961927
0.972179
0.986027
0.997583
0.999477
0.999861
0.999956
0.996948
0.989434
0.977872
0.963614
0.948153
0.932797
0.91858
0.906257
0.896326
0.889048
0.884462
0.882421
0.881997
0.883386
0.886293
0.890399
0.895388
0.90097
0.906896
0.912957
0.918992
0.924877
0.930524
0.935869
0.940877
0.945529
0.949815
0.953737
0.957306
0.960536
0.963444
0.96605
0.968374
0.970437
0.972257
0.973856
0.97525
0.976461
0.977503
0.978393
0.979145
0.979775
0.980288
0.980705
0.981032
0.98128
0.98146
0.981575
0.981638
0.981653
0.981626
0.981564
0.98147
0.981348
0.981205
0.98104
0.98086
0.980663
0.980457
0.980237
0.980012
0.979778
0.979536
0.97929
0.97904
0.978785
0.978526
0.978265
0.977999
0.97773
0.977458
0.977181
0.976897
0.976607
0.976309
0.976003
0.97569
0.975367
0.975038
0.974698
0.97435
0.973989
0.973616
0.973231
0.972829
0.972411
0.971971
0.971509
0.971017
0.970494
0.969932
0.969322
0.96866
0.967931
0.967126
0.966226
0.965214
0.964071
0.962767
0.961278
0.959564
0.957586
0.955295
0.952636
0.949545
0.945945
0.941747
0.936847
0.931121
0.924423
0.916574
0.907383
0.896612
0.883997
0.86925
0.852022
0.831812
0.807694
0.777669
0.737406
0.67852
0.588073
0.454415
0.284768
0.122836
0.0257722
0.826194
0.920272
0.934326
0.939869
0.943632
0.947805
0.953617
0.961764
0.972424
0.986498
0.998717
0.999801
0.999958
0.999989
0.995659
0.985387
0.970178
0.951978
0.932698
0.913903
0.896764
0.882124
0.87055
0.862331
0.857478
0.855753
0.855843
0.858155
0.862284
0.867795
0.874285
0.88139
0.888802
0.896282
0.903643
0.910759
0.917531
0.923907
0.929848
0.935348
0.940404
0.945026
0.949231
0.95304
0.956476
0.959566
0.962332
0.9648
0.966995
0.968941
0.970656
0.972163
0.97348
0.974627
0.975618
0.976468
0.977196
0.977807
0.97832
0.978739
0.97908
0.979346
0.979551
0.979699
0.979797
0.979849
0.979864
0.979842
0.979792
0.979714
0.979613
0.979489
0.97935
0.979191
0.97902
0.978837
0.978641
0.978434
0.978217
0.977991
0.97776
0.977517
0.977268
0.977014
0.97675
0.97648
0.976196
0.975903
0.975597
0.975281
0.97495
0.974608
0.974251
0.973882
0.973496
0.973092
0.972671
0.972227
0.97176
0.971266
0.970743
0.970187
0.96959
0.968951
0.968259
0.967507
0.966685
0.965785
0.964788
0.96368
0.962447
0.961062
0.9595
0.957732
0.955727
0.953442
0.950832
0.947845
0.944414
0.940468
0.935924
0.930679
0.924617
0.91759
0.909441
0.899976
0.888973
0.876189
0.861349
0.844113
0.823971
0.799962
0.770033
0.729837
0.671126
0.581364
0.449378
0.282254
0.122421
0.0259443
0.840552
0.92273
0.934684
0.939367
0.942587
0.946473
0.95239
0.961045
0.972535
0.986587
0.999502
0.999949
0.999991
0.999998
0.993969
0.980278
0.96074
0.938039
0.91453
0.891995
0.871715
0.854611
0.841343
0.832275
0.827401
0.826048
0.827051
0.83077
0.83661
0.843974
0.852326
0.861223
0.870311
0.879329
0.888087
0.896459
0.904362
0.91175
0.918603
0.92492
0.930712
0.935998
0.940805
0.94516
0.949092
0.952639
0.955821
0.958672
0.961217
0.963486
0.965503
0.967291
0.968865
0.970255
0.97147
0.97253
0.97345
0.974247
0.974926
0.975506
0.975992
0.976398
0.976731
0.976998
0.977205
0.977362
0.977468
0.977535
0.977565
0.977559
0.977524
0.977462
0.977377
0.977268
0.977139
0.976993
0.976829
0.976649
0.976454
0.976248
0.97603
0.975798
0.975553
0.975298
0.975032
0.974756
0.974462
0.974154
0.973831
0.973494
0.973139
0.972765
0.972375
0.971964
0.971532
0.971079
0.970598
0.970091
0.969553
0.968981
0.968371
0.967719
0.967018
0.966263
0.965442
0.964551
0.963579
0.962513
0.96134
0.96004
0.9586
0.956994
0.955198
0.953184
0.950919
0.948359
0.945467
0.942187
0.938459
0.934213
0.929366
0.92382
0.91746
0.91015
0.901732
0.892018
0.880812
0.867874
0.852948
0.835691
0.81559
0.791634
0.761706
0.721428
0.662665
0.573265
0.442629
0.277996
0.120803
0.0257261
0.851516
0.924245
0.934364
0.938127
0.940946
0.944498
0.950495
0.959693
0.972089
0.986668
0.999932
0.999996
1
1
0.991824
0.973982
0.949429
0.921717
0.893636
0.86713
0.843517
0.823783
0.808744
0.798954
0.794409
0.792861
0.795468
0.80139
0.809703
0.819554
0.830246
0.84125
0.852194
0.862828
0.872988
0.88258
0.891544
0.899868
0.907544
0.914595
0.921043
0.926921
0.93226
0.937099
0.941472
0.94542
0.948973
0.952166
0.955027
0.957587
0.959873
0.96191
0.96372
0.965325
0.966743
0.967992
0.969088
0.970047
0.970881
0.971603
0.972222
0.972751
0.973196
0.973569
0.973872
0.974115
0.974305
0.974446
0.974542
0.974596
0.974616
0.974601
0.974558
0.974486
0.974386
0.974266
0.974124
0.973961
0.973777
0.973579
0.973362
0.973128
0.972879
0.972616
0.972337
0.972043
0.971731
0.971399
0.971048
0.970679
0.970287
0.969876
0.969443
0.968983
0.9685
0.967986
0.967443
0.966866
0.966254
0.965599
0.964899
0.96415
0.963342
0.96247
0.961525
0.960501
0.959385
0.958163
0.956822
0.955346
0.953714
0.951908
0.949899
0.947661
0.945161
0.942362
0.939221
0.935683
0.931691
0.927183
0.922069
0.916257
0.909635
0.902072
0.893412
0.883483
0.872093
0.859017
0.844011
0.826736
0.80665
0.782696
0.752694
0.71222
0.653232
0.563966
0.434471
0.272346
0.118242
0.0252016
0.859758
0.925008
0.933523
0.936405
0.938684
0.941824
0.947867
0.957646
0.971072
0.986743
1
0.999999
0.999998
0.999999
0.989175
0.966395
0.936153
0.903011
0.870132
0.839516
0.812407
0.789802
0.772792
0.762419
0.758705
0.758526
0.763474
0.77228
0.783621
0.796349
0.809602
0.822797
0.835574
0.847726
0.859152
0.869799
0.879664
0.888756
0.897103
0.904743
0.911716
0.918065
0.923832
0.929061
0.933791
0.938069
0.941925
0.945396
0.948521
0.951327
0.953838
0.956088
0.958096
0.959886
0.961476
0.962888
0.964136
0.965236
0.966203
0.967047
0.96778
0.968411
0.968954
0.969416
0.969799
0.970119
0.970373
0.970574
0.970723
0.970825
0.970885
0.970904
0.970891
0.970842
0.970764
0.970657
0.970522
0.970366
0.970183
0.969981
0.969755
0.969512
0.969248
0.968965
0.968663
0.968343
0.968
0.967635
0.967249
0.96684
0.966407
0.965946
0.965461
0.964948
0.964403
0.963826
0.963213
0.962563
0.96187
0.961128
0.960338
0.959486
0.958573
0.95759
0.956523
0.955368
0.954114
0.952742
0.951246
0.949603
0.947796
0.945806
0.943604
0.941166
0.938457
0.935443
0.932079
0.928316
0.924096
0.919353
0.914004
0.907957
0.9011
0.89331
0.884436
0.874312
0.86276
0.849569
0.834495
0.8172
0.797111
0.773128
0.742985
0.702218
0.64288
0.553597
0.425125
0.265582
0.114948
0.0244426
0.865755
0.925149
0.932215
0.934152
0.935762
0.9384
0.94443
0.954819
0.969419
0.986488
1
1
0.999998
0.999997
0.985985
0.957418
0.920874
0.882024
0.844299
0.809585
0.778852
0.752981
0.733482
0.722632
0.718239
0.721182
0.73081
0.74452
0.760168
0.776346
0.792244
0.807451
0.821755
0.835085
0.847434
0.858823
0.869292
0.878897
0.887685
0.895711
0.90303
0.90969
0.915743
0.921234
0.926216
0.930723
0.934796
0.938477
0.941794
0.944782
0.947468
0.94988
0.952043
0.953979
0.955709
0.957246
0.958615
0.959827
0.9609
0.961841
0.962664
0.96338
0.963999
0.964529
0.964978
0.965353
0.965658
0.965902
0.966091
0.966225
0.966313
0.966355
0.966356
0.966319
0.966249
0.966144
0.966008
0.965845
0.965653
0.965436
0.965193
0.964926
0.964636
0.964323
0.96399
0.963635
0.963253
0.962847
0.962415
0.961956
0.961472
0.960957
0.960413
0.959836
0.959225
0.958576
0.957891
0.957159
0.95638
0.955551
0.954664
0.953715
0.952693
0.951596
0.950411
0.949132
0.947742
0.946232
0.944589
0.942792
0.940826
0.938666
0.936291
0.933674
0.930781
0.927576
0.924016
0.920054
0.915633
0.910682
0.905122
0.898868
0.891803
0.883807
0.87474
0.864447
0.852754
0.839463
0.824337
0.807026
0.78693
0.762882
0.732543
0.691408
0.631629
0.542241
0.414755
0.257914
0.111084
0.0235075
0.869812
0.924757
0.930452
0.931208
0.93184
0.934175
0.940107
0.951121
0.967043
0.985841
0.999997
0.999997
0.999998
0.999996
0.982216
0.946965
0.903599
0.858998
0.816654
0.778126
0.743777
0.714052
0.690752
0.678999
0.67516
0.685017
0.702837
0.723299
0.743592
0.762728
0.78049
0.796888
0.811981
0.825847
0.838571
0.850235
0.860916
0.87069
0.879625
0.887781
0.895222
0.902007
0.908178
0.913787
0.918882
0.923508
0.9277
0.931492
0.934922
0.93802
0.940814
0.943331
0.945596
0.947628
0.949451
0.951079
0.952532
0.953823
0.954968
0.955979
0.956866
0.957639
0.958313
0.958891
0.959379
0.959793
0.96013
0.9604
0.96061
0.96076
0.960859
0.960909
0.960912
0.960874
0.960797
0.960684
0.960532
0.96035
0.960137
0.959893
0.959623
0.959322
0.958996
0.958645
0.958269
0.957867
0.957436
0.956978
0.956493
0.955977
0.95543
0.954853
0.954241
0.953595
0.952911
0.952187
0.951418
0.950603
0.949737
0.948813
0.94783
0.946777
0.945651
0.944444
0.943142
0.941741
0.940225
0.938583
0.936803
0.934865
0.932753
0.930442
0.927913
0.925135
0.922077
0.918704
0.914973
0.910835
0.906229
0.901097
0.895351
0.888903
0.881649
0.87347
0.864232
0.853789
0.841976
0.828612
0.813452
0.796134
0.776021
0.751884
0.72131
0.679748
0.619474
0.529947
0.403479
0.249495
0.106778
0.0224424
0.872098
0.923929
0.928335
0.927696
0.927009
0.929117
0.934817
0.946438
0.963829
0.984783
1
1
0.999998
1
0.977832
0.934936
0.884401
0.834363
0.788093
0.746585
0.709137
0.675131
0.645154
0.622119
0.631779
0.664148
0.693652
0.716652
0.737873
0.757536
0.775804
0.792064
0.806922
0.82051
0.832956
0.844359
0.854805
0.864371
0.87313
0.881141
0.888468
0.895156
0.901265
0.906826
0.911895
0.916505
0.920698
0.924505
0.927956
0.931085
0.93391
0.936465
0.93877
0.940845
0.94271
0.944381
0.945874
0.947207
0.948388
0.949435
0.950355
0.951159
0.951855
0.952454
0.952964
0.953388
0.953737
0.954014
0.954226