/*--------------------------------*- C++ -*----------------------------------*\
  =========                 |
  \\      /  F ield         | OpenFOAM: The Open Source CFD Toolbox
   \\    /   O peration     | Website:  https://openfoam.org
    \\  /    A nd           | Version:  13
     \\/     M anipulation  |
\*---------------------------------------------------------------------------*/
FoamFile
{
    format      ascii;
    class       volScalarField;
    location    "399.831886";
    object      T;
}
// * * * * * * * * * * * * * * * * * * * * * * * * * * * * * * * * * * * * * //

dimensions      [0 0 0 1 0 0 0];

internalField   nonuniform List<scalar> 
5712
(
959.137
960.718
963.266
965.642
968.474
970.992
974.549
976.763
971.928
974.547
967.053
969.584
963.061
965.333
959.748
961.472
971.42
975.251
975.677
980.842
979.08
983.86
983.243
989.317
955.617
949.359
957.199
951.175
959.724
953.638
962.19
956.217
969.039
964.436
973.699
967.799
958.851
963.399
980.721
988.421
985.949
991.685
988.066
994.965
994.155
999.427
973.873
981.551
978.84
984.689
967.952
975.28
942.096
936.907
944.861
939.238
946.344
939.861
949.815
943.554
952.524
943.963
958.797
950.342
963.963
955.364
970.315
961.363
975.744
977.672
982.427
983.797
986.19
988.261
992.046
994.134
972.962
972.732
965.696
966.613
988.108
988.785
993.252
992.843
997.288
999.018
1002.21
1003.1
979.012
977.746
984.467
981.759
963.458
953.452
961.501
950.784
956.196
946.404
955.509
944.724
969.617
959.544
966.423
955.667
975.248
965.056
970.314
959.545
930.994
921.142
929.23
919.849
934.811
925.269
931.588
922.441
940.968
933.238
935.471
927.75
966.875
978.725
956.007
947.996
938.575
975.94
963.385
950.202
941.895
932.38
980.963
969.851
959.182
948.944
938.329
912.069
906.24
908.659
903.797
916.723
910.07
911.901
906.653
925.093
917.509
917.617
911.388
971.529
963.946
957.991
948.73
945.453
936.366
935.956
927.414
923.513
915.696
977.629
971.4
965.204
956.078
953.77
943.94
942.398
932.298
927.925
917.969
973.626
963.809
980.751
971.919
986.141
981.481
993.007
989.427
967.88
957.196
961.186
949.846
986.612
977.787
990.458
981.836
998.441
994.88
1002.33
998.916
973.756
962.901
977.501
966.783
953.288
941.352
935.433
922.074
947.908
935.31
931.706
918.501
958.02
946.438
938.755
925.595
962.328
950.487
943.007
930.377
901.742
896.336
889.643
901.958
897.389
890.951
904.744
898.807
891.78
904.355
899.479
892.609
910.855
904.067
896.428
907.977
902.252
894.646
954.483
943.921
933.023
938.189
928.548
918.628
926.673
917.775
908.624
919.047
910.913
902.062
910.92
904.041
895.242
962.346
950.234
937.694
943.133
930.77
918.474
930.832
919.31
907.879
921.016
910.923
900.289
911.043
902.854
892.78
992.476
996.626
995.935
1001.38
986.47
991.348
990.289
996.408
990.292
995.531
991.333
996.096
993.154
997.721
994.896
999.058
1000.94
997.503
1004.05
999.755
1000.24
1003.13
1005.52
1010.28
1001.02
1006.01
1003.6
1008.57
1007.56
1011.94
1005.15
1009.89
1001.09
1005.99
1000.16
1004.24
1002.9
1007.67
1002.89
1006.81
1005.2
1010.04
1007.6
1011.4
1009.46
1012.08
1013.38
1014.67
1001.14
1004.53
1006.19
1009.89
994.768
997.475
1000.13
1003.09
1010.05
1014.47
1005.37
1009.61
1010.91
1014.35
1015.4
1018.03
1005.13
1007.85
1009.88
1011.83
1014.34
1018.47
1018.53
1021.78
1013.03
1015.53
1016.79
1017.04
1009.15
1012.47
1012.54
1013.54
1016.58
1018.14
1020.31
1019.88
1020.25
1020.78
1023.19
1022.15
999.104
994.737
1004.68
1000.39
1000.05
995.502
1005.57
1001.16
1001.6
997.593
1007.06
1003.18
996.725
989.005
1001.22
1005.09
1008.82
986.333
993.82
997.392
1001.07
1005.39
991.334
999.094
1004.67
1008.14
1009.93
988.32
980.041
993.961
986.002
989.611
981.581
995.375
987.741
992.29
984.559
998.095
990.932
982.651
975.862
990.65
983.616
994.582
987.43
997.828
990.538
1002
995.128
988.817
984.174
996.708
991.895
1002.05
996.636
1005.14
998.835
1006.68
999.627
1004.36
1001.32
1009.9
1008.02
996.955
994.206
1002.99
1001.56
1013.86
1010.68
1008.89
1004.68
1014.04
1012.89
1017.49
1016.46
1007.63
1006.85
1011.41
1010.82
1017.67
1015.15
1020.77
1018.33
1015.38
1010.73
1014.16
1008.2
1010.95
1005.3
1010.81
1004.15
1018.78
1014.86
1016.82
1011.48
1021.44
1017.57
1019.13
1014.26
969.163
958.476
948.541
972.815
960.754
950.759
971.245
960.345
950.134
975.076
962.891
952.409
974.7
963.86
953.388
978.784
965.938
954.686
966.902
956.212
945.058
974.454
963.411
952.016
978.185
966.717
955.148
980.842
969.342
958.015
982.828
969.227
956.896
976.388
964.424
951.591
983.796
971.571
958.586
987.669
974.839
961.481
988.687
975.357
961.916
986.726
972.306
958.646
1006.02
998.55
984.989
963.856
1003.77
996.069
982.268
961.091
1007.08
999.278
985.576
964.211
1005.63
997.397
983.362
962.028
1008.51
1000.19
986.85
965.989
1009.04
1000.05
986.013
964.739
1008.48
998.832
983.98
962.365
1009.67
999.163
983.762
962.077
1011.73
1001.99
987.932
966.75
1011.29
1000.87
987.726
968.482
1009.53
1000.57
987.762
968.011
1008.89
999.308
987.062
968.869
1013.38
1002.91
987.848
965.927
1013.28
1002.15
988.262
968.53
1014.96
1003.79
988.221
966.39
1014.9
1003.19
988.885
969.172
1005.47
998.593
986.053
966.004
1002.06
996.027
985.149
967.447
1005.82
998.697
986.256
966.31
1002.29
995.989
985.127
967.577
1006.35
998.762
986.592
967.147
1003.14
996.239
985.274
967.884
1006.6
998.426
986.687
968.25
1003.94
996.399
985.462
968.463
1006.38
997.644
986.296
969.234
997.094
991.835
981.875
968.659
991.805
987.011
976.876
964.201
997.801
992.174
982.105
968.888
992.538
987.333
977.04
964.303
999.095
992.765
982.407
969.08
993.817
987.879
977.282
964.495
1000.93
993.637
982.982
969.532
995.514
988.65
977.679
964.755
1003.21
994.747
983.661
970.011
997.433
989.506
978.087
964.984
1007.22
996.741
984.445
970.281
1001.91
991.811
979.371
965.746
1005.33
995.77
984.042
970.122
999.759
990.687
978.746
965.398
1008.8
997.574
984.768
970.391
1003.75
992.79
979.883
966.122
1010.2
998.394
985.248
970.75
1005.29
993.67
980.395
966.491
934.757
912.343
893.771
878.731
866.892
933.145
911.042
892.566
877.573
865.771
934.912
912.415
893.815
878.763
866.919
933.388
911.195
892.681
877.673
865.863
935.223
912.542
893.893
878.825
866.975
934.509
912.137
893.545
878.491
866.65
933.782
911.428
892.842
877.798
865.973
934.044
911.618
892.984
877.911
866.071
935.387
912.622
893.939
878.854
866.999
933.952
910.729
892.038
877.001
865.196
935.102
912.19
893.51
878.444
866.603
933.565
910.328
891.662
876.647
864.856
935.339
912.569
893.867
878.771
866.91
933.727
910.473
891.771
876.731
864.928
935.624
912.755
894.003
878.879
867.003
933.722
910.382
891.647
876.593
864.787
934.53
911.747
893.141
878.116
866.295
932.55
909.502
890.948
875.995
864.242
934.544
911.69
893.066
878.036
866.215
932.578
909.486
890.919
875.962
864.207
934.462
911.47
892.821
877.788
865.971
932.522
909.358
890.773
875.812
864.059
933.827
910.632
891.975
876.96
865.166
932.157
908.942
890.353
875.397
863.655
932.642
909.417
890.794
875.815
864.053
890.979
888.248
892.406
889.626
895.077
891.942
898.549
894.777
902.195
897.701
908.178
903.188
905.277
900.316
910.818
906.057
913.37
909.032
866.387
840.403
818.544
800.598
786.579
866.447
840.295
818.192
800.149
785.942
867.007
840.684
818.684
800.676
786.635
867.037
840.525
818.337
800.157
785.964
868.261
841.286
819.001
800.862
786.77
868.248
841.103
818.64
800.334
786.092
869.959
842.13
819.45
801.122
786.952
869.812
841.882
819.052
800.571
786.256
871.93
843.159
819.999
801.432
787.166
871.511
842.775
819.536
800.853
786.456
876.078
845.629
821.465
802.358
787.875
875.392
845.017
820.827
801.656
787.085
874.039
844.377
820.7
801.86
787.484
873.389
843.824
820.119
801.203
786.72
878
846.854
822.238
802.872
788.281
877.487
846.342
821.663
802.217
787.539
879.844
848.059
823.011
803.39
788.684
879.604
847.678
822.544
802.814
787.981
1004.9
1000.67
994.467
999.171
985.931
987.136
988.133
989.788
987.522
989.616
981.684
983.971
977.234
979.873
981.435
983.737
982.588
984.306
982.162
983.494
998.296
996.642
969.071
959.662
957.686
956.31
964.71
981.261
971.774
978.802
962.228
949.736
972.731
971.564
961.33
968.842
965.558
963.42
987.958
984.152
975.872
976.794
980.825
981.718
977.626
974.493
963.553
964.777
970.646
971.942
995.26
993.724
991.588
989.784
985.704
987.551
977.214
968.723
978.066
1008.82
1013.42
1014.38
1012.12
1006.85
1005.02
1009.25
1010.13
1007.53
1001.41
975.166
977.781
977.647
974.697
968.948
965.518
967.954
967.708
964.74
959.076
963.564
966.05
965.868
962.963
957.35
962.119
964.536
964.295
961.353
955.735
970.711
973.267
973.107
970.171
964.473
991.741
997.373
999.65
998.682
994.833
982.652
988.586
990.996
990.195
986.193
986.95
991.518
993.154
991.485
986.296
972.304
978.002
980.141
979.091
974.588
959.358
965.127
967.265
966.269
961.867
979.671
983.188
983.906
981.578
976.102
979.184
983.356
984.677
982.815
977.589
968.643
972.616
973.823
971.946
966.811
975.437
978.63
979.07
976.564
971.039
972.351
975.783
976.471
974.175
968.789
969.866
972.952
973.326
970.809
965.334
998.056
1003.01
1004.74
1003.24
998.732
991.768
995.816
996.928
994.778
989.264
982.644
985.956
986.454
983.931
978.323
983.397
986.511
986.807
984.121
978.42
987.803
991.267
991.862
989.366
983.712
988.476
991.693
992.037
989.336
983.566
984.041
986.922
986.979
984.104
978.296
980.841
983.692
983.751
980.905
975.151
969.718
972.481
972.539
969.779
964.18
970.859
973.51
973.448
970.586
964.924
977.086
980.088
980.33
977.657
972.03
978.282
981.155
981.258
978.468
972.77
1005.42
1010.21
1011.45
1009.41
1004.41
1001.66
1005.72
1006.56
1003.96
997.961
1000.38
1004.78
1006.08
1004.02
998.778
997.057
1000.69
1001.27
998.581
992.683
992.648
996.011
996.437
993.732
987.916
995.134
999.119
1000.13
997.819
992.155
983.657
986.583
986.688
983.854
978.072
974.869
977.551
977.489
974.599
968.884
984.636
987.693
987.919
985.166
979.416
1008.4
1004.07
1008.26
1003.56
1015.29
1010.27
1015.34
1010.8
1008.1
1007.72
1003.87
1005.17
1015.31
1015.04
1011.01
1012.64
1000.92
993.488
997.105
990.069
1001.01
994.359
996.704
990.272
997.07
1000.69
999.112
1001.39
995.561
991.933
998.768
994.727
1001.38
996.981
1005.47
1001.08
1008.84
1004.53
992.414
988.235
995.272
990.537
987.21
982.401
986.407
979.723
983.283
976.866
987.257
979.489
983.459
976.491
989.013
978.936
986.482
977.306
982.215
972.939
976.875
967.617
1005.22
1002.99
1003.68
1001.33
1013.97
1012.9
1012.37
1011.42
995.275
990.244
996.703
991.893
1000.96
999.131
997.441
996.276
1009.68
1009.3
1006.25
1006.53
992.585
988.087
988.927
985.185
986.334
975.478
978.692
967.268
987.428
975.949
980.105
968.161
983.712
973.272
976.628
965.512
979.916
969.673
973.706
962.829
986.71
983.862
979.518
975.187
987.489
985.014
978.873
974.624
988.701
987.232
977.628
974.042
1005.24
1014.18
996.466
986.96
974.274
1014.25
1005.8
996.989
987.04
972.38
1013.41
1003.74
992.732
980.81
968.104
978.624
975.097
963.029
957.428
980.947
977.379
963.875
958.238
984.427
981.17
964.917
959.17
1013.23
1009.96
1004.28
1000.92
994.855
991.771
983.603
980.27
963.561
957.481
1012.42
1008.68
1001.86
996.649
990.117
984.415
976.681
970.482
958.671
951.654
999.354
991.833
997.75
990.197
1011.28
1007.81
1009.79
1006.62
984.853
975.547
986.617
977.595
996.3
988.064
993.619
985.102
1008.03
1004.62
1005.47
1002.02
983.487
973.336
980.68
970.109
969.518
958.598
950.259
937.574
972.039
961.204
953.547
941.429
967.506
956.376
947.406
934.515
965.536
953.765
945.766
933.17
972.285
968.568
957.766
955.56
974.596
970.497
958.229
956.027
977.784
972.359
958.573
955.747
1004.51
996.346
995.554
988.126
987.136
980.576
976.147
969.834
957.186
953.863
1002.62
993.664
989.387
981.306
977.753
970.886
965.768
960.591
952.68
949.516
1025.54
1025.8
1021.23
1023.34
1021.27
1021.4
1016.86
1018.96
1027.56
1028.6
1023.09
1024.26
1027.7
1028.79
1022.92
1024.19
1024.15
1027.96
1025.45
1027.97
1028.77
1025.02
1019.57
1015.14
1015.29
1010.99
1019.03
1014.22
1021.5
1016.93
1019.99
1015.44
1028.42
1026.53
1024.18
1022.52
1028.97
1027.11
1024.46
1023.06
1029.72
1027.93
1026.67
1025.36
1022.2
1021.36
1017.99
1018.01
1026.28
1025.96
1024.79
1024.99
1021.18
1020.82
1019.63
1019.57
1027.6
1027.9
1029.01
1028.62
1022.27
1023.32
1019.11
1021.02
1017.04
1017.64
1013.76
1015.09
1025.16
1026.48
1022.11
1024.44
1028.74
1027.21
1028.47
1026.22
1030.03
1027.98
1029
1026.44
1026.4
1025.49
1027.29
1025.39
1023.53
1023.28
1025.51
1023.99
1030.09
1029.07
1027.94
1026.51
1030.27
1029.15
1028.05
1026.48
1030.29
1029.34
1028.05
1026.63
1026.41
1021.36
1029.08
1029.96
1027.53
1021.08
1025.96
1028.47
1029.26
1026.53
1021.18
1026.1
1028.59
1028.85
1026.08
1025.74
1020.21
1022.79
1017.18
1026.25
1020.97
1023.19
1017.76
1026.99
1022.16
1023.84
1018.76
1020.22
1016.97
1025.08
1021.49
1027.18
1023.21
1027.43
1023.04
1024.25
1019.51
1020.58
1017.73
1025.35
1022.23
1027.46
1023.68
1027.23
1022.61
1024.06
1019.13
1025.47
1022.98
1024.27
1022.47
1020.46
1018.52
1018.93
1017.69
1026.59
1023.61
1027.46
1023.87
1022.37
1021.14
1020.23
1019.1
1016.78
1016.05
1014.41
1013.75
1025.1
1022.54
1023.21
1020.7
1026.33
1022.03
1022.98
1017.85
1026.97
1022.05
1023.6
1018.21
1025.23
1021.32
1021.99
1017
1023.64
1019.71
1020.82
1016
1013.72
1007.74
1009.29
1002.59
1014.87
1008.39
1009.91
1002.78
1016.12
1008.71
1010.84
1002.46
1011.45
1002.91
1015.63
1006.95
1017.33
1008.77
1016.77
1007.99
1011.43
1001.43
1012.15
1002.35
1016.24
1006.09
1017.01
1006.63
1015.1
1004.56
1010.19
998.875
1019.09
1006.31
989.459
966.519
1015.52
1003.02
986.365
963.556
1019.42
1006.64
989.779
966.669
1016.1
1003.63
987.021
964.214
1019.73
1006.93
990.732
968.247
1017.86
1005.36
989.147
966.62
1014.3
1002.33
986.069
963.632
1011.77
1000.42
984.52
962.543
1019.21
1006.58
990.675
968.453
1017.42
1004.67
990.093
970.063
1019.4
1006.56
991.31
970.155
1017.41
1004.53
990.219
970.871
1018.12
1005.83
989.614
967.058
1016.99
1004.48
989.743
969.569
1016.59
1004.8
988.833
966.783
1016.15
1003.98
989.391
969.533
1020.1
1007.2
990.992
968.963
1018.16
1005.31
990.52
970.751
1019.91
1007.01
991.017
969.129
1017.83
1004.98
990.328
970.757
1019.42
1006.52
991.057
969.763
1017.47
1004.61
990.123
970.826
1018.37
1005.47
990.796
970.683
1016.94
1004.06
989.922
971.145
1016.87
1003.96
990.06
971.56
1014.02
1001.39
987.448
972.446
1008.83
996.562
982.572
968.232
1014.09
1001.42
987.515
972.561
1008.87
996.562
982.569
968.222
1014.11
1001.39
987.456
972.494
1008.86
996.492
982.474
968.193
1014.15
1001.35
987.539
972.599
1008.88
996.424
982.419
968.152
1014.12
1001.25
987.595
972.714
1008.81
996.242
982.261
968.01
1013.21
1000.43
986.793
972.013
1008.38
995.783
981.917
967.63
1013.77
1000.9
987.221
972.375
1008.75
996.115
982.172
967.911
1012.38
999.803
986.215
971.495
1007.61
995.189
981.437
967.282
1011.39
999.136
985.734
971.125
1006.55
994.46
980.909
966.877
936.186
913.141
894.223
879.005
867.088
934.504
911.807
893
877.837
865.96
936.216
913.142
894.226
879.012
867.099
934.577
911.863
893.061
877.902
866.028
936.374
913.181
894.255
879.044
867.133
935.496
912.691
893.859
878.681
866.786
934.469
911.814
893.062
877.931
866.069
934.304
911.764
893.068
877.962
866.108
936.279
913.117
894.218
879.023
867.12
934.741
911.163
892.283
877.15
865.303
936.155
912.771
893.838
878.643
866.745
934.509
910.844
891.954
876.824
864.983
935.953
912.911
894.061
878.888
866.995
934.262
910.768
891.938
876.832
865
935.838
912.875
894.071
878.92
867.033
933.909
910.485
891.705
876.628
864.812
936.03
912.573
893.607
878.398
866.498
934.096
910.342
891.42
876.281
864.447
935.954
912.465
893.503
878.3
866.405
934.054
910.287
891.369
876.234
864.403
935.729
912.164
893.212
878.025
866.141
933.867
910.086
891.183
876.06
864.237
934.956
911.247
892.321
877.169
865.317
933.343
909.585
890.714
875.615
863.813
933.682
909.983
891.114
876.008
864.191
931.956
928.516
931.525
928.012
930.557
926.936
929.036
925.458
926.581
923.438
920.383
916.5
923.145
919.685
917.969
913.786
915.715
911.531
892.527
856.049
828.109
806.823
791.269
893.107
856.188
827.863
806.43
790.649
892.178
855.836
827.977
806.736
791.206
892.644
855.876
827.722
806.255
790.544
891.486
855.424
827.73
806.577
791.09
891.96
855.478
827.486
806.105
790.435
890.402
854.779
827.334
806.315
790.89
890.957
854.893
827.131
805.87
790.255
888.837
853.852
826.748
805.91
790.574
889.659
854.139
826.662
805.552
790.01
885.179
851.646
825.359
804.98
789.886
885.593
851.724
825.145
804.547
789.289
887.023
852.798
826.09
805.465
790.237
887.788
853.076
825.998
805.108
789.685
883.408
850.474
824.599
804.47
789.509
883.516
850.372
824.285
803.985
788.891
881.626
849.259
823.797
803.923
789.094
881.562
848.997
823.41
803.4
788.431
1010.74
1006.68
1011.34
1015.58
1025.11
1020.55
1025.3
1020.28
1021.06
1015.91
1020.97
1016.39
926.034
927.656
931.001
936.087
942.898
951.18
925.601
927.168
930.383
935.19
941.448
948.852
923.174
918.937
924.952
920.905
928.639
925.007
934.335
931.484
941.934
939.807
950.877
948.563
960.271
969.177
977.202
984.152
989.412
992.755
956.881
964.86
972.219
978.504
983.268
986.189
931.297
933.37
932.968
930.094
924.794
932.943
935.03
934.632
931.751
926.433
936.339
938.452
938.061
935.165
929.809
941.504
943.66
943.282
940.364
934.95
948.426
950.647
950.292
947.349
941.859
956.859
959.172
958.858
955.893
950.313
930.86
932.934
932.535
929.665
924.372
932.453
934.54
934.145
931.27
925.959
935.717
937.831
937.445
934.557
929.21
940.6
942.758
942.387
939.48
934.079
946.965
949.186
948.838
945.91
940.441
954.506
956.813
956.505
953.559
948.01
928.4
930.458
930.056
927.201
921.936
924.11
926.146
925.748
922.92
917.707
930.205
932.276
931.878
929.015
923.729
926.106
928.157
927.763
924.926
919.691
933.945
936.045
935.654
932.773
927.445
930.268
932.349
931.962
929.105
923.824
939.727
941.873
941.495
938.588
933.196
936.843
938.977
938.603
935.718
930.363
947.449
949.665
949.311
946.376
940.899
945.301
947.513
947.168
944.253
938.806
956.552
958.866
958.555
955.595
950.02
954.216
956.529
956.231
953.296
947.756
966.139
968.581
968.335
965.36
959.687
975.274
977.886
977.744
974.782
969.024
983.577
986.415
986.424
983.505
977.682
990.871
993.993
994.196
991.345
985.473
996.513
999.948
1000.33
997.505
991.551
1000.15
1003.78
1004.24
1001.37
995.303
962.703
965.124
964.877
961.922
956.29
970.879
973.444
973.281
970.333
964.624
978.46
981.198
981.146
978.22
972.444
984.981
987.907
987.976
985.081
979.25
989.955
993.039
993.207
990.337
984.46
992.998
996.178
996.385
993.494
987.574
926.131
927.959
931.552
936.961
944.213
953.133
925.706
927.496
930.974
936.112
942.793
950.725
923.267
919.03
925.245
921.2
929.178
925.557
935.204
932.384
943.254
941.158
952.944
950.84
963.039
972.751
981.368
988.283
992.52
993.923
959.339
967.83
975.445
981.51
985.437
986.984
931.393
933.465
933.06
930.184
924.882
933.245
935.326
934.921
932.033
926.708
936.886
938.99
938.585
935.675
930.306
942.371
944.51
944.108
941.166
935.731
949.73
951.921
951.526
948.544
943.021
958.79
961.056
960.677
957.648
952.017
930.965
933.036
932.635
929.763
924.467
932.778
934.86
934.458
931.574
926.256
936.303
938.407
938.006
935.102
929.741
941.515
943.655
943.258
940.324
934.902
948.298
950.489
950.102
947.134
941.631
956.36
958.622
958.255
955.248
949.65
928.492
930.548
930.145
927.287
922.02
924.203
926.237
925.837
923.007
917.793
930.496
932.563
932.158
929.288
923.996
926.4
928.446
928.045
925.202
919.96
934.482
936.572
936.167
933.272
927.933
930.815
932.887
932.486
929.615
924.321
940.59
942.718
942.316
939.385
933.972
937.735
939.85
939.45
936.539
931.162
948.755
950.939
950.543
947.565
942.054
946.635
948.81
948.416
945.454
939.97
958.593
960.852
960.469
957.438
951.807
956.463
958.711
958.33
955.313
949.71
968.872
971.24
970.894
967.82
962.069
978.797
981.301
981.016
977.912
972.044
987.677
990.37
990.188
987.083
981.113
994.937
997.927
997.914
994.817
988.765
999.6
1002.94
1003.14
1000.08
993.953
1001.31
1004.91
1005.3
1002.34
996.189
965.133
967.49
967.157
964.116
958.416
973.809
976.289
976.013
972.952
967.154
981.639
984.273
984.085
981.026
975.145
987.937
990.753
990.683
987.655
981.718
992.082
995.093
995.153
992.166
986.21
993.777
996.933
997.099
994.16
988.205
1000.86
998.451
973.33
962.709
962.059
959.622
969.041
1004.49
1000.53
997.989
991.293
986.142
989.652
979.936
979.32
974.487
1004.67
998.021
986.945
985.691
991.72
989.903
983.151
981.02
971.326
970.872
979.668
979.362
1002.83
998.577
1002.76
996.188
993.134
998.661
983.699
974.205
985.888
1011.33
1015.67
1016.42
1013.96
1008.51
1006.82
1010.94
1011.68
1008.95
1002.7
979.357
981.838
981.527
978.4
972.519
968.523
970.873
970.513
967.432
961.682
967.875
970.23
969.878
966.805
961.063
965.385
967.706
967.34
964.274
958.561
974.974
977.391
977.052
973.94
968.109
1013.91
1017.53
1017.84
1014.98
1009.53
1009.52
1012.88
1012.96
1009.97
1004.3
1005.45
1008.89
1009.08
1005.9
999.532
999.229
1002.16
1002.03
998.978
993.133
992.609
995.403
995.25
992.104
986.064
996.411
999.415
999.381
996.253
990.184
986.184
988.822
988.6
985.478
979.521
985.599
988.27
988.082
984.992
979.056
980.616
983.183
982.938
979.844
973.96
1014.14
1017.85
1018.22
1015.38
1009.81
1005.37
1008.77
1008.91
1005.69
999.278
993.402
996.195
996.027
992.851
986.787
992.079
994.815
994.616
991.441
985.395
998.443
1001.44
1001.36
998.14
991.966
996.501
999.404
999.284
996.083
989.958
989.461
992.147
991.936
988.786
982.785
987.236
989.84
989.581
986.424
980.443
977.339
979.819
979.52
976.416
970.562
976.851
979.3
978.977
975.86
970.008
985.876
988.477
988.226
985.087
979.124
985.539
988.118
987.848
984.695
978.734
1012.86
1016.93
1017.54
1014.92
1009.39
1006.5
1010.31
1010.8
1007.85
1001.49
1011.41
1015.07
1015.51
1012.6
1006.62
1003.44
1006.84
1007.02
1003.86
997.537
999.99
1003.1
1003.09
999.871
993.656
1006.12
1009.61
1009.84
1006.69
1000.26
990.014
992.693
992.473
989.315
983.298
980.251
982.741
982.431
979.299
973.403
992.289
995.033
994.838
991.664
985.61
980.198
986.129
989.187
989.315
986.562
980.179
1009.81
1009.45
1016.73
1016.91
1008.96
1008.07
1016.32
1015.56
1002.01
993.87
1001.97
994.731
1001.17
1001.45
996.076
1010.1
1009.61
1017
1017.31
1008.97
1007.95
1016.4
1015.38
1001.71
993.191
1001.6
994.114
1000.69
1001.04
995.388
1009.87
1009.24
1016.79
1017.26
1008.39
1007.15
1015.93
1014.66
1001.21
990.861
1000.97
991.932
999.853
1000.1
993.327
1007.31
1006.58
1014.17
1014.77
1005.49
1003.86
1013.11
1011.49
998.259
987.362
997.997
988.395
996.766
996.866
989.929
1002.84
1002.07
1009.41
1010.07
1000.86
998.922
1008.25
1006.49
993.968
983.849
993.676
984.579
992.449
992.202
985.974
995.435
994.693
1001.46
1002.13
993.575
991.865
1000.31
998.643
987.477
978.565
987.232
979.166
986.11
985.915
980.484
1026.71
1026.74
1022.55
1022.6
1026.54
1026.21
1022.28
1021.71
1029.07
1030.25
1028.98
1030.15
1028.87
1028.45
1029.66
1027.11
1026.99
1022.84
1023.03
1026.58
1026.03
1022.36
1021.61
1029.54
1030.09
1029.27
1029.79
1028.8
1028.14
1029.13
1027.05
1026.74
1022.66
1023.02
1026.04
1025.2
1021.89
1020.81
1028.97
1028.18
1028.5
1027.88
1027.66
1026.87
1027.21
1024.43
1023.96
1020
1020.51
1023.01
1021.78
1019.01
1017.67
1025.86
1023.99
1025.24
1023.65
1024.05
1022.96
1022.97
1019.47
1018.91
1015.1
1015.68
1017.73
1016.13
1014
1012.46
1020.47
1018.21
1019.76
1017.89
1018.42
1017.1
1017.32
1010.99
1010.41
1006.81
1007.41
1009.23
1007.79
1005.68
1004.17
1012.07
1010.81
1011.39
1010.41
1010.23
1009.1
1009.8
958.857
960.354
963.209
965.594
968.431
970.953
974.516
976.732
971.892
974.513
967.006
969.54
963.001
965.277
959.42
961.062
971.391
975.232
975.65
980.824
979.055
983.844
983.22
989.302
955.394
949.187
956.897
950.927
959.679
953.604
962.156
956.194
969.015
964.408
973.68
967.779
958.826
963.378
980.703
988.41
985.936
991.675
988.051
994.954
994.143
999.418
973.856
981.541
978.825
984.679
967.937
975.269
941.941
936.762
944.637
939.023
946.322
939.841
949.8
943.541
952.506
943.948
958.781
950.329
963.95
955.353
970.306
961.355
975.731
977.663
982.415
983.788
986.179
988.252
992.035
994.125
972.95
972.723
965.683
966.603
988.097
988.778
993.245
992.837
997.279
999.011
1002.2
1003.1
979.001
977.739
984.459
981.753
963.446
953.441
961.494
950.777
956.184
946.394
955.501
944.716
969.607
959.535
966.416
955.66
975.24
965.049
970.308
959.539
930.826
920.977
929.107
919.736
934.802
925.265
931.572
922.428
940.957
933.231
935.459
927.741
966.866
978.717
955.997
947.986
938.566
975.932
963.377
950.194
941.887
932.372
980.955
969.843
959.173
948.936
938.321
911.915
906.098
908.568
903.723
916.721
910.074
911.895
906.649
925.089
917.507
917.611
911.383
971.524
963.941
957.984
948.725
945.446
936.36
935.949
927.409
923.507
915.69
977.623
971.395
965.197
956.072
953.763
943.933
942.391
932.292
927.919
917.963
973.619
963.803
980.744
971.913
986.134
981.476
993
989.422
967.873
957.19
961.178
949.839
986.606
977.782
990.453
981.832
998.436
994.875
1002.33
998.912
973.75
962.896
977.496
966.779
953.282
941.346
935.428
922.068
947.901
935.303
931.7
918.495
958.015
946.433
938.75
925.591
962.324
950.483
943.002
930.373
901.621
896.228
889.544
901.889
897.328
890.895
904.747
898.809
891.78
904.35
899.472
892.602
910.855
904.066
896.426
907.972
902.248
894.64
954.479
943.917
933.02
938.185
928.544
918.625
926.669
917.772
908.62
919.044
910.91
902.059
910.915
904.037
895.237
962.342
950.23
937.691
943.128
930.766
918.471
930.827
919.306
907.875
921.01
910.918
900.283
911.037
902.849
892.774
992.461
996.615
995.922
1001.37
986.451
991.334
990.272
996.395
990.135
995.379
991.113
995.885
993.14
997.71
994.891
999.054
1000.93
997.492
1004.04
999.746
1000.23
1003.13
1005.51
1010.27
1001.01
1006
1003.59
1008.56
1007.55
1011.94
1005.15
1009.89
1000.96
1005.9
999.968
1004.09
1002.89
1007.66
1002.89
1006.8
1005.2
1010.03
1007.59
1011.39
1009.45
1012.08
1013.38
1014.67
1001.13
1004.52
1006.18
1009.89
994.758
997.467
1000.12
1003.08
1010.04
1014.46
1005.37
1009.61
1010.9
1014.34
1015.39
1018.02
1005.12
1007.84
1009.87
1011.82
1014.33
1018.47
1018.53
1021.78
1013.02
1015.53
1016.79
1017.04
1009.15
1012.46
1012.53
1013.54
1016.57
1018.13
1020.3
1019.87
1020.25
1020.78
1023.18
1022.14
999.013
994.668
1004.62
1000.35
1000.05
995.499
1005.56
1001.15
1001.6
997.588
1007.05
1003.18
996.719
988.998
1001.21
1005.08
1008.81
986.327
993.814
997.387
1001.07
1005.39
991.327
999.088
1004.66
1008.13
1009.92
988.263
979.975
993.938
985.97
989.609
981.582
995.37
987.735
992.288
984.558
998.09
990.928
982.646
975.858
990.645
983.612
994.577
987.427
997.824
990.535
1002
995.124
988.811
984.17
996.703
991.891
1002.05
996.632
1005.14
998.831
1006.68
999.623
1004.35
1001.31
1009.9
1008.02
996.949
994.201
1002.98
1001.56
1013.85
1010.68
1008.89
1004.67
1014.03
1012.89
1017.49
1016.46
1007.62
1006.85
1011.41
1010.82
1017.66
1015.15
1020.77
1018.33
1015.37
1010.73
1014.16
1008.2
1010.94
1005.3
1010.81
1004.14
1018.78
1014.86
1016.81
1011.48
1021.43
1017.57
1019.12
1014.26
969.091
958.396
948.461
972.781
960.708
950.709
971.247
960.347
950.134
975.069
962.886
952.404
974.699
963.859
953.387
978.779
965.934
954.682
966.899
956.209
945.055
974.451
963.408
952.013
978.183
966.714
955.145
980.84
969.34
958.013
982.824
969.223
956.892
976.384
964.421
951.589
983.793
971.569
958.583
987.665
974.836
961.478
988.683
975.353
961.912
986.722
972.301
958.642
1005.96
998.508
984.948
963.807
1003.66
995.98
982.188
961.012
1007.08
999.275
985.575
964.214
1005.63
997.399
983.365
962.036
1008.51
1000.19
986.85
965.991
1009.04
1000.05
986.014
964.743
1008.48
998.832
983.981
962.368
1009.67
999.163
983.763
962.079
1011.72
1001.99
987.932
966.751
1011.29
1000.87
987.726
968.483
1009.53
1000.57
987.761
968.012
1008.88
999.306
987.062
968.87
1013.38
1002.91
987.848
965.929
1013.27
1002.15
988.262
968.531
1014.96
1003.79
988.222
966.392
1014.89
1003.19
988.886
969.173
1005.44
998.582
986.038
965.975
1002.05
996.033
985.153
967.439
1005.82
998.693
986.254
966.311
1002.28
995.985
985.125
967.577
1006.34
998.759
986.591
967.147
1003.13
996.237
985.273
967.884
1006.6
998.424
986.686
968.25
1003.94
996.397
985.46
968.463
1006.38
997.642
986.295
969.234
997.105
991.858
981.897
968.666
991.817
987.037
976.906
964.229
997.797
992.171
982.103
968.888
992.533
987.329
977.037
964.3
999.091
992.762
982.406
969.08
993.814
987.876
977.28
964.494
1000.93
993.635
982.981
969.532
995.511
988.648
977.678
964.755
1003.21
994.746
983.66
970.01
997.43
989.504
978.086
964.983
1007.22
996.74
984.445
970.281
1001.91
991.81
979.371
965.746
1005.32
995.769
984.041
970.121
999.757
990.686
978.746
965.397
1008.79
997.574
984.768
970.391
1003.75
992.789
979.883
966.122
1010.2
998.393
985.248
970.751
1005.29
993.67
980.395
966.492
934.742
912.338
893.769
878.73
866.89
933.098
911.006
892.534
877.544
865.743
934.913
912.417
893.818
878.766
866.923
933.397
911.204
892.691
877.682
865.872
935.225
912.545
893.896
878.829
866.979
934.514
912.143
893.551
878.497
866.656
933.786
911.432
892.847
877.803
865.978
934.047
911.622
892.989
877.916
866.076
935.39
912.626
893.942
878.858
867.003
933.954
910.732
892.041
877.005
865.199
935.104
912.193
893.513
878.448
866.606
933.567
910.33
891.665
876.65
864.86
935.341
912.573
893.871
878.775
866.915
933.729
910.476
891.775
876.735
864.932
935.628
912.759
894.007
878.884
867.008
933.725
910.386
891.651
876.598
864.791
934.539
911.764
893.16
878.134
866.313
932.572
909.531
890.977
876.024
864.27
934.542
911.689
893.066
878.036
866.215
932.574
909.484
890.917
875.961
864.207
934.462
911.471
892.822
877.79
865.973
932.521
909.357
890.773
875.813
864.06
933.828
910.634
891.977
876.962
865.169
932.158
908.943
890.355
875.399
863.658
932.643
909.418
890.797
875.818
864.056
890.902
888.197
892.405
889.619
895.074
891.937
898.544
894.772
902.19
897.696
908.174
903.184
905.272
900.311
910.814
906.053
913.367
909.028
866.347
840.38
818.528
800.586
786.569
866.43
840.293
818.195
800.153
785.948
867.004
840.683
818.684
800.676
786.636
867.03
840.52
818.333
800.154
785.961
868.257
841.284
819
800.861
786.769
868.243
841.1
818.637
800.333
786.09
869.955
842.128
819.448
801.12
786.951
869.809
841.88
819.05
800.57
786.254
871.926
843.156
819.996
801.43
787.164
871.507
842.772
819.534
800.851
786.454
876.075
845.626
821.462
802.355
787.873
875.388
845.014