/*--------------------------------*- C++ -*----------------------------------*\
  =========                 |
  \\      /  F ield         | OpenFOAM: The Open Source CFD Toolbox
   \\    /   O peration     | Website:  https://openfoam.org
    \\  /    A nd           | Version:  12
     \\/     M anipulation  |
\*---------------------------------------------------------------------------*/
FoamFile
{
    format      ascii;
    class       volVectorField;
    location    "60";
    object      UMean;
}
// * * * * * * * * * * * * * * * * * * * * * * * * * * * * * * * * * * * * * //

dimensions      [0 1 -1 0 0 0 0];

internalField   nonuniform List<vector> 
4480
(
(-9.67208e-06 0 7.79685e-06)
(-8.55512e-06 0 -9.18088e-06)
(2.27484e-05 0 -3.89579e-05)
(0.000105023 0 -8.08382e-05)
(0.000254604 0 -0.000134159)
(0.000486654 0 -0.000197445)
(0.000813957 0 -0.000268554)
(0.00124586 0 -0.000344697)
(0.00178735 0 -0.000422494)
(0.00243828 0 -0.000498137)
(0.00319292 0 -0.000567651)
(0.00403995 0 -0.000627216)
(0.00496287 0 -0.000673502)
(0.00594093 0 -0.000703955)
(0.00695037 0 -0.000717005)
(0.00796597 0 -0.00071215)
(0.0089625 0 -0.000689933)
(0.0099162 0 -0.000651804)
(0.0108059 0 -0.000599928)
(0.0116138 0 -0.000536951)
(0.0123263 0 -0.000465767)
(0.0129338 0 -0.000389311)
(0.0134307 0 -0.000310386)
(0.0138155 0 -0.000231536)
(0.0140899 0 -0.000154963)
(0.0142584 0 -8.24599e-05)
(0.0143275 0 -1.53074e-05)
(0.0143061 0 4.57446e-05)
(0.0142028 0 0.000100308)
(0.0140269 0 0.000148171)
(0.0137878 0 0.000189299)
(0.0134953 0 0.000223795)
(0.0131584 0 0.000251893)
(0.0127861 0 0.000273933)
(0.0123867 0 0.000290339)
(0.0119677 0 0.000301592)
(0.0115361 0 0.000308207)
(0.0110981 0 0.000310718)
(0.0106591 0 0.000309656)
(0.0102237 0 0.000305541)
(0.00979609 0 0.000298866)
(0.00937939 0 0.000290094)
(0.0089763 0 0.000279649)
(0.0085889 0 0.000267917)
(0.00821878 0 0.00025524)
(0.00786706 0 0.000241918)
(0.00753445 0 0.000228214)
(0.00722134 0 0.000214351)
(0.00692782 0 0.000200514)
(0.00665374 0 0.00018686)
(0.00639875 0 0.000173514)
(0.00616236 0 0.000160576)
(0.00594392 0 0.000148122)
(0.0057427 0 0.00013621)
(0.00555793 0 0.000124879)
(0.00538875 0 0.000114155)
(0.0052343 0 0.000104052)
(0.0050937 0 9.45723e-05)
(0.00496607 0 8.57116e-05)
(0.00485055 0 7.74582e-05)
(0.00474628 0 6.97952e-05)
(0.00465245 0 6.27016e-05)
(0.00456827 0 5.61534e-05)
(0.00449299 0 5.01243e-05)
(0.00442589 0 4.45862e-05)
(0.0043663 0 3.95104e-05)
(0.00431359 0 3.48673e-05)
(0.00426716 0 3.06276e-05)
(0.00422647 0 2.67618e-05)
(0.004191 0 2.3241e-05)
(0.0041603 0 2.0037e-05)
(0.00413392 0 1.71223e-05)
(0.00411149 0 1.44702e-05)
(0.00409264 0 1.20549e-05)
(0.00407706 0 9.85157e-06)
(0.00406446 0 7.83638e-06)
(0.0040546 0 5.98643e-06)
(0.00404726 0 4.27979e-06)
(0.00404225 0 2.69567e-06)
(0.0040394 0 1.2143e-06)
(0.00403859 0 -1.83614e-07)
(0.00403972 0 -1.51702e-06)
(0.0040427 0 -2.80472e-06)
(0.00404747 0 -4.06563e-06)
(0.00405403 0 -5.31858e-06)
(0.00406236 0 -6.58242e-06)
(0.00407249 0 -7.8763e-06)
(0.00408449 0 -9.21995e-06)
(0.00409842 0 -1.0634e-05)
(0.00411442 0 -1.21403e-05)
(0.00413262 0 -1.37622e-05)
(0.0041532 0 -1.55251e-05)
(0.00417638 0 -1.74567e-05)
(0.00420242 0 -1.95878e-05)
(0.00423161 0 -2.19528e-05)
(0.00426433 0 -2.45905e-05)
(0.00430097 0 -2.75452e-05)
(0.00434201 0 -3.08676e-05)
(0.00438803 0 -3.46162e-05)
(0.00443964 0 -3.88591e-05)
(0.00449762 0 -4.36762e-05)
(0.00456281 0 -4.91614e-05)
(0.00463624 0 -5.54263e-05)
(0.00471908 0 -6.26038e-05)
(0.00481271 0 -7.08536e-05)
(0.00491878 0 -8.03688e-05)
(0.00503919 0 -9.13838e-05)
(0.00517625 0 -0.000104186)
(0.00533268 0 -0.000119128)
(0.00551175 0 -0.000136648)
(0.00571744 0 -0.000157291)
(0.00595456 0 -0.000181738)
(0.00622901 0 -0.000210838)
(0.00654805 0 -0.000245649)
(0.00692065 0 -0.00028747)
(0.00735796 0 -0.000337858)
(0.00787377 0 -0.000398602)
(0.00848509 0 -0.000471628)
(0.00921349 0 -0.000559253)
(0.0100885 0 -0.000667001)
(0.0111466 0 -0.00081367)
(0.0124028 0 -0.0010509)
(0.0138825 0 -0.00151751)
(0.0164 0 -0.00287564)
(0.0239986 0 -0.00870271)
(0.0380386 0 -0.0316615)
(0.0425929 0 -0.0804351)
(0.0197355 0 -0.101268)
(-0.00939903 0 -0.103821)
(-0.0345752 0 -0.0844557)
(-0.0304616 0 -0.0329002)
(-0.0155548 0 -0.00925463)
(-0.00758448 0 -0.0030155)
(-0.00510223 0 -0.00149454)
(-0.00374786 0 -0.000964216)
(-0.0026327 0 -0.000701752)
(-0.00172741 0 -0.000541672)
(-0.00101569 0 -0.000420978)
(-0.000471272 0 -0.000318706)
(-0.000211868 0 -0.000207797)
(3.66431e-06 0 7.66985e-06)
(2.06837e-05 0 -2.78911e-05)
(7.84142e-05 0 -8.9913e-05)
(0.000195998 0 -0.000177571)
(0.000393298 0 -0.000289215)
(0.000688373 0 -0.000421759)
(0.00109616 0 -0.000570742)
(0.00162737 0 -0.000730331)
(0.0022875 0 -0.000893445)
(0.00307597 0 -0.0010521)
(0.00398564 0 -0.00119797)
(0.00500288 0 -0.00132303)
(0.00610813 0 -0.00142027)
(0.00727698 0 -0.00148433)
(0.0084817 0 -0.0015119)
(0.00969298 0 -0.00150192)
(0.0108816 0 -0.0014555)
(0.01202 0 -0.00137569)
(0.0130838 0 -0.00126701)
(0.0140524 0 -0.00113499)
(0.0149099 0 -0.000985675)
(0.0156448 0 -0.000825206)
(0.0162505 0 -0.000659432)
(0.0167247 0 -0.000493666)
(0.0170688 0 -0.000332497)
(0.0172876 0 -0.000179669)
(0.0173882 0 -3.79571e-05)
(0.0173801 0 9.10014e-05)
(0.0172735 0 0.000206411)
(0.0170789 0 0.0003078)
(0.0168076 0 0.000395051)
(0.0164706 0 0.000468368)
(0.0160789 0 0.000528229)
(0.0156428 0 0.000575337)
(0.0151722 0 0.000610567)
(0.0146764 0 0.000634919)
(0.0141635 0 0.000649467)
(0.0136412 0 0.000655323)
(0.013116 0 0.000653602)
(0.0125937 0 0.000645389)
(0.0120793 0 0.000631723)
(0.0115768 0 0.000613576)
(0.0110896 0 0.000591845)
(0.0106204 0 0.000567342)
(0.0101713 0 0.000540792)
(0.00974365 0 0.000512835)
(0.0093386 0 0.000484025)
(0.00895668 0 0.000454837)
(0.00859812 0 0.000425671)
(0.00826285 0 0.000396859)
(0.00795051 0 0.00036867)
(0.00766059 0 0.000341319)
(0.00739237 0 0.000314972)
(0.00714503 0 0.000289754)
(0.00691765 0 0.000265752)
(0.00670924 0 0.000243023)
(0.00651879 0 0.000221598)
(0.00634524 0 0.000201485)
(0.00618756 0 0.000182677)
(0.00604469 0 0.00016515)
(0.00591562 0 0.000148871)
(0.00579936 0 0.000133795)
(0.00569496 0 0.000119873)
(0.00560149 0 0.000107049)
(0.0055181 0 9.52664e-05)
(0.00544396 0 8.44632e-05)
(0.00537829 0 7.45777e-05)
(0.00532038 0 6.55478e-05)
(0.00526956 0 5.73117e-05)
(0.00522519 0 4.98084e-05)
(0.00518672 0 4.2978e-05)
(0.0051536 0 3.67625e-05)
(0.00512536 0 3.11052e-05)
(0.00510156 0 2.59518e-05)
(0.00508182 0 2.12497e-05)
(0.00506579 0 1.69482e-05)
(0.00505315 0 1.29989e-05)
(0.00504363 0 9.35526e-06)
(0.005037 0 5.97292e-06)
(0.00503307 0 2.80976e-06)
(0.00503167 0 -1.75032e-07)
(0.00503267 0 -3.02168e-06)
(0.00503597 0 -5.76996e-06)
(0.00504151 0 -8.45978e-06)
(0.00504924 0 -1.11312e-05)
(0.00505918 0 -1.38242e-05)
(0.00507134 0 -1.65795e-05)
(0.00508581 0 -1.9439e-05)
(0.00510267 0 -2.24464e-05)
(0.00512207 0 -2.5648e-05)
(0.00514417 0 -2.90933e-05)
(0.00516921 0 -3.28361e-05)
(0.00519743 0 -3.69351e-05)
(0.00522916 0 -4.14554e-05)
(0.00526475 0 -4.64697e-05)
(0.00530465 0 -5.20601e-05)
(0.00534935 0 -5.83201e-05)
(0.00539943 0 -6.53565e-05)
(0.00545556 0 -7.32929e-05)
(0.00551853 0 -8.22731e-05)
(0.00558924 0 -9.24652e-05)
(0.00566873 0 -0.000104067)
(0.00575824 0 -0.000117314)
(0.00585917 0 -0.000132486)
(0.0059732 0 -0.000149918)
(0.00610229 0 -0.000170017)
(0.00624875 0 -0.000193278)
(0.00641532 0 -0.000220304)
(0.00660529 0 -0.000251842)
(0.00682258 0 -0.000288819)
(0.00707195 0 -0.000332395)
(0.00735919 0 -0.000384032)
(0.00769141 0 -0.000445589)
(0.00807748 0 -0.000519446)
(0.00852855 0 -0.000608677)
(0.00905896 0 -0.000717309)
(0.00968758 0 -0.000850728)
(0.0104402 0 -0.00101644)
(0.0113545 0 -0.00122592)
(0.0124894 0 -0.00149999)
(0.0139402 0 -0.00188356)
(0.0158568 0 -0.00247629)
(0.0185223 0 -0.00349404)
(0.0226778 0 -0.00552925)
(0.0297015 0 -0.0107577)
(0.0373058 0 -0.0258604)
(0.0341831 0 -0.0579919)
(0.016787 0 -0.0757756)
(-0.00606216 0 -0.0775104)
(-0.024839 0 -0.0609343)
(-0.028173 0 -0.0272429)
(-0.0200703 0 -0.0112958)
(-0.0127159 0 -0.0056711)
(-0.00844008 0 -0.00344604)
(-0.00575782 0 -0.00233502)
(-0.00388436 0 -0.00169412)
(-0.00252224 0 -0.00127756)
(-0.00150665 0 -0.000969721)
(-0.000736795 0 -0.00071629)
(-0.000339948 0 -0.00048506)
(1.69149e-05 0 -1.30256e-05)
(4.89978e-05 0 -7.88271e-05)
(0.0001323 0 -0.000195179)
(0.000282308 0 -0.000360095)
(0.000521956 0 -0.000570087)
(0.000872 0 -0.000819195)
(0.00134934 0 -0.0010989)
(0.00196598 0 -0.00139812)
(0.00272788 0 -0.00170349)
(0.00363404 0 -0.00200004)
(0.00467598 0 -0.00227222)
(0.00583789 0 -0.00250516)
(0.00709731 0 -0.00268596)
(0.00842653 0 -0.00280479)
(0.00979426 0 -0.00285567)
(0.0111677 0 -0.00283678)
(0.0125143 0 -0.00275027)
(0.0138039 0 -0.00260179)
(0.0150095 0 -0.00239969)
(0.0161088 0 -0.00215411)
(0.0170843 0 -0.00187614)
(0.0179236 0 -0.00157699)
(0.0186196 0 -0.00126739)
(0.0191694 0 -0.000957072)
(0.0195745 0 -0.000654493)
(0.0198396 0 -0.00036658)
(0.0199723 0 -9.85872e-05)
(0.0199822 0 0.000146113)
(0.0198808 0 0.00036573)
(0.0196793 0 0.000559298)
(0.0193901 0 0.000726505)
(0.0190253 0 0.000867643)
(0.018597 0 0.000983523)
(0.0181167 0 0.00107539)
(0.0175955 0 0.00114481)
(0.0170436 0 0.00119361)
(0.0164705 0 0.00122375)
(0.0158846 0 0.00123729)
(0.0152935 0 0.00123629)
(0.014704 0 0.00122279)
(0.0141216 0 0.00119872)
(0.0135512 0 0.00116593)
(0.0129968 0 0.00112611)
(0.0124616 0 0.0010808)
(0.0119482 0 0.00103139)
(0.0114584 0 0.000979101)
(0.0109936 0 0.000925013)
(0.0105544 0 0.000870039)
(0.0101415 0 0.00081496)
(0.00975468 0 0.000760422)
(0.00939379 0 0.000706958)
(0.0090583 0 0.000654993)
(0.00874749 0 0.000604857)
(0.00846048 0 0.000556803)
(0.00819629 0 0.000511009)
(0.00795385 0 0.000467595)
(0.00773202 0 0.00042663)
(0.00752965 0 0.00038814)
(0.00734555 0 0.000352116)
(0.00717856 0 0.00031852)
(0.00702752 0 0.000287292)
(0.00689132 0 0.000258354)
(0.00676885 0 0.000231615)
(0.00665909 0 0.000206971)
(0.00656103 0 0.000184314)
(0.00647373 0 0.00016353)
(0.0063963 0 0.000144502)
(0.00632791 0 0.000127112)
(0.00626779 0 0.000111244)
(0.00621521 0 9.67806e-05)
(0.00616951 0 8.36088e-05)
(0.00613008 0 7.16177e-05)
(0.00609637 0 6.06994e-05)
(0.00606785 0 5.075e-05)
(0.00604409 0 4.1669e-05)
(0.00602468 0 3.33596e-05)
(0.00600924 0 2.57291e-05)
(0.00599747 0 1.86884e-05)
(0.00598909 0 1.21522e-05)
(0.00598388 0 6.03935e-06)
(0.00598163 0 2.71438e-07)
(0.00598219 0 -5.22849e-06)
(0.00598545 0 -1.05365e-05)
(0.00599132 0 -1.57286e-05)
(0.00599977 0 -2.08811e-05)
(0.00601078 0 -2.60711e-05)
(0.00602439 0 -3.13762e-05)
(0.00604066 0 -3.68768e-05)
(0.00605972 0 -4.26566e-05)
(0.0060817 0 -4.88039e-05)
(0.00610682 0 -5.54133e-05)
(0.0061353 0 -6.25872e-05)
(0.00616745 0 -7.04376e-05)
(0.00620362 0 -7.90882e-05)
(0.00624422 0 -8.86774e-05)
(0.00628974 0 -9.93609e-05)
(0.00634073 0 -0.000111316)
(0.00639786 0 -0.000124744)
(0.00646187 0 -0.00013988)
(0.00653363 0 -0.000156996)
(0.00661416 0 -0.000176407)
(0.00670462 0 -0.000198488)
(0.00680638 0 -0.000223679)
(0.00692099 0 -0.000252508)
(0.00705031 0 -0.000285605)
(0.00719649 0 -0.000323732)
(0.00736206 0 -0.000367814)
(0.00755003 0 -0.000418983)
(0.00776394 0 -0.000478638)
(0.00800807 0 -0.000548518)
(0.00828754 0 -0.000630809)
(0.0086086 0 -0.000728284)
(0.00897893 0 -0.000844513)
(0.00940807 0 -0.000984156)
(0.00990817 0 -0.00115343)
(0.0104949 0 -0.00136089)
(0.0111892 0 -0.00161871)
(0.0120197 0 -0.00194529)
(0.0130275 0 -0.00237025)
(0.0142731 0 -0.00294533)
(0.0158456 0 -0.0037673)
(0.0178716 0 -0.00502201)
(0.0205259 0 -0.00706368)
(0.0240244 0 -0.0105956)
(0.0282562 0 -0.0171182)
(0.0309589 0 -0.0292564)
(0.0266088 0 -0.0468355)
(0.0140324 0 -0.0579903)
(-0.00243847 0 -0.0591005)
(-0.0159777 0 -0.048757)
(-0.0205778 0 -0.0305949)
(-0.0176979 0 -0.0178815)
(-0.0132198 0 -0.0109499)
(-0.00953044 0 -0.00714325)
(-0.00675443 0 -0.00492412)
(-0.0046717 0 -0.00355331)
(-0.00309906 0 -0.00264498)
(-0.00189256 0 -0.00199169)
(-0.00094918 0 -0.00148364)
(-0.00043593 0 -0.00106481)
(2.70797e-05 0 -5.22178e-05)
(7.06245e-05 0 -0.000150406)
(0.000173733 0 -0.000325171)
(0.000349274 0 -0.000573598)
(0.000622965 0 -0.000890183)
(0.00101817 0 -0.00126581)
(0.00155381 0 -0.00168745)
(0.00224329 0 -0.00213815)
(0.00309315 0 -0.00259755)
(0.00410204 0 -0.00304289)
(0.00526012 0 -0.0034507)
(0.00654927 0 -0.00379863)
(0.00794401 0 -0.00406746)
(0.00941309 0 -0.00424275)
(0.0109216 0 -0.00431594)
(0.0124333 0 -0.00428473)
(0.0139127 0 -0.00415276)
(0.0153271 0 -0.00392879)
(0.016648 0 -0.00362543)
(0.0178517 0 -0.00325787)
(0.0189203 0 -0.0028425)
(0.0198412 0 -0.00239583)
(0.0206071 0 -0.00193356)
(0.0212155 0 -0.00146992)
(0.0216681 0 -0.00101721)
(0.0219701 0 -0.000585556)
(0.0221294 0 -0.000182707)
(0.022156 0 0.000186099)
(0.0220617 0 0.00051793)
(0.0218587 0 0.000811257)
(0.0215599 0 0.00106552)
(0.0211782 0 0.00128103)
(0.0207263 0 0.0014589)
(0.0202166 0 0.00160087)
(0.0196608 0 0.0017092)
(0.01907 0 0.00178651)
(0.0184543 0 0.00183566)
(0.0178229 0 0.00185965)
(0.0171841 0 0.00186153)
(0.0165451 0 0.00184429)
(0.0159123 0 0.00181083)
(0.0152909 0 0.00176388)
(0.0146857 0 0.00170598)
(0.0141 0 0.00163946)
(0.013537 0 0.00156643)
(0.0129988 0 0.00148874)
(0.012487 0 0.00140804)
(0.0120026 0 0.00132573)
(0.0115462 0 0.00124302)
(0.011118 0 0.00116091)
(0.0107179 0 0.00108024)
(0.0103453 0 0.00100168)
(0.00999958 0 0.000925753)
(0.00967989 0 0.000852862)
(0.0093852 0 0.0007833)
(0.0091144 0 0.000717268)
(0.0088663 0 0.000654888)
(0.00863966 0 0.000596214)
(0.00843322 0 0.000541244)
(0.00824573 0 0.000489933)
(0.00807593 0 0.000442199)
(0.00792261 0 0.000397931)
(0.00778458 0 0.000356996)
(0.0076607 0 0.000319243)
(0.00754987 0 0.000284512)
(0.00745106 0 0.000252631)
(0.0073633 0 0.000223427)
(0.00728565 0 0.000196723)
(0.00721726 0 0.000172342)
(0.00715734 0 0.000150109)
(0.00710513 0 0.000129851)
(0.00705998 0 0.000111401)
(0.00702124 0 9.45942e-05)
(0.00698837 0 7.92733e-05)
(0.00696084 0 6.52853e-05)
(0.0069382 0 5.24829e-05)
(0.00692006 0 4.07245e-05)
(0.00690604 0 2.98742e-05)
(0.00689585 0 1.98016e-05)
(0.00688921 0 1.03822e-05)
(0.00688592 0 1.49589e-06)
(0.00688579 0 -6.97462e-06)
(0.00688869 0 -1.51452e-05)
(0.00689452 0 -2.31312e-05)
(0.00690324 0 -3.10488e-05)
(0.00691482 0 -3.9015e-05)
(0.0069293 0 -4.71486e-05)
(0.00694674 0 -5.55716e-05)
(0.00696727 0 -6.44111e-05)
(0.00699103 0 -7.38014e-05)
(0.00701825 0 -8.38857e-05)
(0.00704917 0 -9.48188e-05)
(0.00708412 0 -0.00010677)
(0.00712346 0 -0.000119925)
(0.00716764 0 -0.000134493)
(0.00721718 0 -0.000150707)
(0.00727267 0 -0.000168832)
(0.0073348 0 -0.000189172)
(0.00740438 0 -0.000212074)
(0.00748232 0 -0.000237944)
(0.00756969 0 -0.000267252)
(0.00766772 0 -0.000300551)
(0.00777781 0 -0.000338494)
(0.0079016 0 -0.000381858)
(0.00804101 0 -0.00043157)
(0.00819824 0 -0.000488748)
(0.00837588 0 -0.000554748)
(0.00857698 0 -0.000631225)
(0.00880512 0 -0.000720219)
(0.00906455 0 -0.000824268)
(0.00936038 0 -0.000946559)
(0.00969871 0 -0.00109115)
(0.010087 0 -0.00126328)
(0.0105345 0 -0.00146983)
(0.0110526 0 -0.00172007)
(0.0116558 0 -0.00202683)
(0.012363 0 -0.00240847)
(0.0131985 0 -0.00289234)
(0.0141944 0 -0.00352097)
(0.0153923 0 -0.00436317)
(0.0168416 0 -0.00553363)
(0.0185901 0 -0.00722484)
(0.0206548 0 -0.00975382)
(0.0229391 0 -0.0136281)
(0.0249613 0 -0.0196015)
(0.0251863 0 -0.0283853)
(0.0209774 0 -0.0388396)
(0.0119042 0 -0.0458009)
(0.000430585 0 -0.0465693)
(-0.00933294 0 -0.0402756)
(-0.013784 0 -0.0296696)
(-0.0135425 0 -0.020516)
(-0.0113726 0 -0.0141792)
(-0.00891172 0 -0.0100072)
(-0.00668989 0 -0.00725168)
(-0.00482456 0 -0.00538882)
(-0.0033041 0 -0.00407911)
(-0.00206964 0 -0.00311152)
(-0.00105958 0 -0.00236047)
(-0.000492007 0 -0.00175705)
(3.22559e-05 0 -0.000103054)
(8.18374e-05 0 -0.000235591)
(0.000196002 0 -0.000472497)
(0.000387643 0 -0.000810366)
(0.000685267 0 -0.00124171)
(0.00111492 0 -0.00175408)
(0.00169782 0 -0.00232951)
(0.002449 0 -0.00294455)
(0.00337582 0 -0.00357099)
(0.0044766 0 -0.00417737)
(0.00574006 0 -0.0047313)
(0.00714544 0 -0.00520213)
(0.00866373 0 -0.00556377)
(0.0102596 0 -0.0057969)
(0.0118942 0 -0.0058905)
(0.0135273 0 -0.00584221)
(0.0151206 0 -0.0056578)
(0.016639 0 -0.0053498)
(0.0180528 0 -0.0049358)
(0.0193378 0 -0.00443656)
(0.0204761 0 -0.00387424)
(0.0214558 0 -0.0032709)
(0.0222703 0 -0.00264734)
(0.0229182 0 -0.0020223)
(0.0234019 0 -0.0014119)
(0.0237274 0 -0.00082935)
(0.0239033 0 -0.000284839)
(0.0239401 0 0.000214578)
(0.0238501 0 0.000664792)
(0.0236458 0 0.00106366)
(0.0233407 0 0.00141035)
(0.022948 0 0.0017052)
(0.022481 0 0.00194958)
(0.0219524 0 0.00214575)
(0.0213744 0 0.00229664)
(0.0207583 0 0.00240565)
(0.0201148 0 0.00247656)
(0.0194534 0 0.00251332)
(0.0187828 0 0.00251994)
(0.0181106 0 0.00250041)
(0.0174435 0 0.00245858)
(0.0167872 0 0.00239811)
(0.0161465 0 0.00232242)
(0.0155255 0 0.00223465)
(0.0149272 0 0.00213764)
(0.0143542 0 0.00203393)
(0.0138082 0 0.00192576)
(0.0132907 0 0.00181507)
(0.0128022 0 0.00170352)
(0.0123431 0 0.0015925)
(0.0119133 0 0.00148319)
(0.0115125 0 0.00137652)
(0.01114 0 0.00127325)
(0.0107951 0 0.00117395)
(0.0104766 0 0.00107904)
(0.0101836 0 0.000988832)
(0.00991471 0 0.000903506)
(0.00966877 0 0.000823158)
(0.00944444 0 0.000747805)
(0.00924042 0 0.0006774)
(0.00905541 0 0.000611844)
(0.00888813 0 0.000550996)
(0.00873732 0 0.000494685)
(0.00860178 0 0.000442714)
(0.00848035 0 0.000394868)
(0.00837193 0 0.00035092)
(0.00827546 0 0.000310637)
(0.00818997 0 0.00027378)
(0.00811454 0 0.00024011)
(0.00804831 0 0.000209389)
(0.00799048 0 0.000181384)
(0.00794032 0 0.000155865)
(0.00789717 0 0.00013261)
(0.0078604 0 0.000111403)
(0.00782947 0 9.20346e-05)
(0.00780389 0 7.43039e-05)
(0.00778321 0 5.80169e-05)
(0.00776704 0 4.29875e-05)
(0.00775504 0 2.90366e-05)
(0.00774693 0 1.59928e-05)
(0.00774246 0 3.69092e-06)
(0.00774144 0 -8.02981e-06)
(0.00774371 0 -1.93278e-05)
(0.00774918 0 -3.03607e-05)
(0.00775776 0 -4.12867e-05)
(0.00776945 0 -5.22657e-05)
(0.00778426 0 -6.346e-05)
(0.00780226 0 -7.50358e-05)
(0.00782355 0 -8.71666e-05)
(0.00784832 0 -0.000100035)
(0.00787675 0 -0.000113834)
(0.00790912 0 -0.000128775)
(0.00794574 0 -0.000145085)
(0.00798701 0 -0.000163016)
(0.00803337 0 -0.000182847)
(0.00808534 0 -0.000204891)
(0.00814354 0 -0.000229504)
(0.00820867 0 -0.00025709)
(0.00828154 0 -0.000288111)
(0.00836307 0 -0.000323104)
(0.00845434 0 -0.000362691)
(0.00855657 0 -0.000407601)
(0.00867116 0 -0.000458691)
(0.00879972 0 -0.000516978)
(0.00894414 0 -0.000583671)
(0.00910654 0 -0.000660223)
(0.00928944 0 -0.000748387)
(0.00949572 0 -0.000850298)
(0.00972876 0 -0.000968577)
(0.00999251 0 -0.00110647)
(0.0102916 0 -0.00126804)
(0.0106316 0 -0.00145844)
(0.011019 0 -0.0016843)
(0.0114616 0 -0.00195427)
(0.011969 0 -0.00227993)
(0.0125523 0 -0.00267704)
(0.0132253 0 -0.0031677)
(0.0140041 0 -0.0037836)
(0.0149063 0 -0.00457135)
(0.0159491 0 -0.00560065)
(0.0171414 0 -0.00697626)
(0.0184672 0 -0.00885318)
(0.0198501 0 -0.0114506)
(0.0210868 0 -0.0150527)
(0.02171 0 -0.0199534)
(0.0207799 0 -0.0261938)
(0.0170561 0 -0.0327955)
(0.0104505 0 -0.0371966)
(0.00245406 0 -0.0377352)
(-0.00462995 0 -0.033898)
(-0.00855818 0 -0.0273473)
(-0.00953936 0 -0.020905)
(-0.00884448 0 -0.0157297)
(-0.00747287 0 -0.0118596)
(-0.00593771 0 -0.00902723)
(-0.00447186 0 -0.00694925)
(-0.00316618 0 -0.00539591)
(-0.00203378 0 -0.00420049)
(-0.00105977 0 -0.00325162)
(-0.000497976 0 -0.00248137)
(3.0964e-05 0 -0.00015737)
(7.97471e-05 0 -0.000325475)
(0.000193934 0 -0.000628086)
(0.000390306 0 -0.00106166)
(0.000700401 0 -0.0016168)
(0.00115322 0 -0.00227752)
(0.00177264 0 -0.00302049)
(0.00257578 0 -0.003815)
(0.00357103 0 -0.00462395)
(0.0047565 0 -0.00540593)
(0.00611915 0 -0.00611836)
(0.00763509 0 -0.00672116)
(0.00927103 0 -0.00718054)
(0.0109868 0 -0.00747206)
(0.0127385 0 -0.00758242)
(0.0144817 0 -0.00750984)
(0.0161747 0 -0.0072631)
(0.0177803 0 -0.00685955)
(0.0192677 0 -0.00632271)
(0.020613 0 -0.00567972)
(0.021799 0 -0.00495908)
(0.0228151 0 -0.00418876)
(0.0236565 0 -0.00339486)
(0.0243233 0 -0.00260059)
(0.0248196 0 -0.00182578)
(0.0251525 0 -0.00108656)
(0.0253319 0 -0.000395331)
(0.025369 0 0.000239242)
(0.0252763 0 0.000811982)
(0.025067 0 0.00132015)
(0.0247548 0 0.00176266)
(0.0243533 0 0.00213991)
(0.0238759 0 0.00245359)
(0.0233354 0 0.00270649)
(0.0227441 0 0.0029022)
(0.0221136 0 0.00304497)
(0.0214544 0 0.00313945)
(0.0207762 0 0.00319055)
(0.0200878 0 0.00320327)
(0.0193969 0 0.00318256)
(0.0187103 0 0.00313324)
(0.0180337 0 0.00305988)
(0.0173723 0 0.0029668)
(0.0167301 0 0.00285794)
(0.0161105 0 0.0027369)
(0.0155161 0 0.00260691)
(0.0149488 0 0.00247084)
(0.0144101 0 0.00233115)
(0.0139008 0 0.00219001)
(0.0134214 0 0.00204922)
(0.0129719 0 0.00191029)
(0.012552 0 0.00177446)
(0.0121612 0 0.00164273)
(0.0117988 0 0.00151586)
(0.0114636 0 0.00139443)
(0.0111548 0 0.00127886)
(0.010871 0 0.0011694)
(0.0106111 0 0.00106622)
(0.0103736 0 0.000969341)
(0.0101574 0 0.000878736)
(0.00996105 0 0.000794292)
(0.00978325 0 0.000715844)
(0.00962273 0 0.000643185)
(0.00947825 0 0.000576073)
(0.00934862 0 0.000514242)
(0.0092327 0 0.00045741)
(0.00912939 0 0.000405282)
(0.00903768 0 0.000357557)
(0.00895661 0 0.000313932)
(0.00888528 0 0.000274106)
(0.00882285 0 0.000237781)
(0.00876857 0 0.000204665)
(0.00872172 0 0.000174474)
(0.00868167 0 0.000146931)
(0.00864782 0 0.000121768)
(0.00861966 0 9.87285e-05)
(0.00859671 0 7.75624e-05)
(0.00857856 0 5.80308e-05)
(0.00856486 0 3.99035e-05)
(0.00855528 0 2.29592e-05)
(0.00854958 0 6.98526e-06)
(0.00854753 0 -8.22537e-06)
(0.00854898 0 -2.2876e-05)
(0.00855379 0 -3.71682e-05)
(0.0085619 0 -5.13045e-05)
(0.00857327 0 -6.54894e-05)
(0.00858792 0 -7.99302e-05)
(0.0086059 0 -9.48394e-05)
(0.00862731 0 -0.000110438)
(0.00865232 0 -0.000126958)
(0.00868112 0 -0.000144645)
(0.00871399 0 -0.000163766)
(0.00875122 0 -0.000184608)
(0.0087932 0 -0.000207488)
(0.00884037 0 -0.000232756)
(0.00889325 0 -0.000260804)
(0.00895243 0 -0.000292076)
(0.00901861 0 -0.000327072)
(0.00909256 0 -0.000366367)
(0.00917519 0 -0.000410623)
(0.00926753 0 -0.000460605)
(0.00937075 0 -0.000517205)
(0.00948617 0 -0.00058147)
(0.00961532 0 -0.000654632)
(0.00975994 0 -0.000738153)
(0.00992202 0 -0.000833779)
(0.0101038 0 -0.000943608)
(0.0103079 0 -0.00107018)
(0.0105373 0 -0.00121658)
(0.0107953 0 -0.00138663)
(0.011086 0 -0.00158506)
(0.0114138 0 -0.00181781)
(0.0117838 0 -0.00209244)
(0.0122018 0 -0.00241871)
(0.0126745 0 -0.00280939)
(0.0132091 0 -0.00328148)
(0.0138129 0 -0.00385798)
(0.0144927 0 -0.00457043)
(0.0152524 0 -0.00546243)
(0.0160886 0 -0.00659433)
(0.0169819 0 -0.00804832)
(0.0178814 0 -0.00993189)
(0.0186779 0 -0.012374)
(0.0191651 0 -0.0155026)
(0.0189852 0 -0.0193801)
(0.0175895 0 -0.0238398)
(0.014413 0 -0.028171)
(0.0095161 0 -0.0310107)
(0.00381054 0 -0.031387)
(-0.00137641 0 -0.0290379)
(-0.00473367 0 -0.0248499)
(-0.00620011 0 -0.0203132)
(-0.00635527 0 -0.0162537)
(-0.00577345 0 -0.0129084)
(-0.00484605 0 -0.0102483)
(-0.00380727 0 -0.00815638)
(-0.00278441 0 -0.00650207)
(-0.0018316 0 -0.00517227)
(-0.000968852 0 -0.0040818)
(-0.000459746 0 -0.00317188)
(2.227e-05 0 -0.000205439)
(6.24687e-05 0 -0.000409076)
(0.000164122 0 -0.000780299)
(0.000352589 0 -0.0013157)
(0.00066285 0 -0.00200401)
(0.00112725 0 -0.00282559)
(0.0017729 0 -0.00375122)
(0.00261946 0 -0.00474206)
(0.00367672 0 -0.00575087)
(0.00494258 0 -0.00672477)
(0.00640192 0 -0.00760932)
(0.00802696 0 -0.00835359)
(0.00977909 0 -0.00891514)
(0.0116121 0 -0.00926404)
(0.0134761 0 -0.00938511)
(0.0153216 0 -0.00927806)
(0.0171032 0 -0.00895595)
(0.0187816 0 -0.00844233)
(0.0203253 0 -0.00776787)
(0.021711 0 -0.00696714)
(0.0229233 0 -0.00607567)
(0.0239537 0 -0.00512779)
(0.0247998 0 -0.00415497)
(0.0254643 0 -0.00318487)
(0.0259534 0 -0.0022408)
(0.0262763 0 -0.0013415)
(0.0264441 0 -0.000501228)
(0.0264692 0 0.00027011)
(0.0263645 0 0.000966527)
(0.0261439 0 0.00158478)
(0.0258213 0 0.00212365)
(0.0254104 0 0.00258368)
(0.0249246 0 0.00296698)
(0.0243767 0 0.0032769)
(0.0237788 0 0.0035178)
(0.0231423 0 0.00369474)
(0.0224775 0 0.00381327)
(0.0217938 0 0.00387926)
(0.0210999 0 0.00389866)
(0.0204032 0 0.00387737)
(0.0197105 0 0.00382115)
(0.0190274 0 0.00373548)
(0.018359 0 0.0036255)
(0.0177093 0 0.00349597)
(0.0170816 0 0.00335125)
(0.0164787 0 0.00319522)
(0.0159025 0 0.00303135)
(0.0153545 0 0.00286269)
(0.0148357 0 0.00269186)
(0.0143466 0 0.00252109)
(0.0138873 0 0.00235225)
(0.0134577 0 0.00218689)
(0.0130572 0 0.00202625)
(0.0126851 0 0.0018713)
(0.0123407 0 0.00172279)
(0.0120227 0 0.00158125)
(0.0117302 0 0.00144705)
(0.0114618 0 0.00132038)
(0.0112163 0 0.00120133)
(0.0109924 0 0.00108987)
(0.0107888 0 0.000985892)
(0.0106041 0 0.000889211)
(0.0104372 0 0.000799587)
(0.0102867 0 0.000716738)
(0.0101515 0 0.000640351)
(0.0100304 0 0.000570088)
(0.0099223 0 0.000505595)
(0.00982616 0 0.000446511)
(0.00974101 0 0.00039247)
(0.00966594 0 0.000343106)
(0.0096001 0 0.000298057)
(0.0095427 0 0.000256967)
(0.00949301 0 0.000219489)
(0.00945038 0 0.000185285)
(0.0094142 0 0.000154028)
(0.00938393 0 0.000125402)
(0.00935908 0 9.91017e-05)
(0.00933922 0 7.48334e-05)
(0.00932398 0 5.23141e-05)
(0.00931303 0 3.12714e-05)
(0.00930609 0 1.14432e-05)
(0.00930295 0 -7.42501e-06)
(0.00930342 0 -2.55829e-05)
(0.00930737 0 -4.32772e-05)
(0.00931471 0 -6.07554e-05)
(0.0093254 0 -7.82671e-05)
(0.00933944 0 -9.60654e-05)
(0.00935688 0 -0.00011441)
(0.0093778 0 -0.000133568)
(0.00940236 0 -0.000153823)
(0.00943075 0 -0.000175472)
(0.00946321 0 -0.000198835)
(0.00950003 0 -0.00022426)
(0.00954158 0 -0.000252126)
(0.00958828 0 -0.000282851)
(0.00964062 0 -0.000316903)
(0.00969915 0 -0.000354807)
(0.00976454 0 -0.000397156)
(0.00983752 0 -0.000444626)
(0.00991892 0 -0.000497992)
(0.0100097 0 -0.000558149)
(0.0101109 0 -0.000626131)
(0.0102238 0 -0.000703148)
(0.0103497 0 -0.000790616)
(0.0104901 0 -0.000890207)
(0.0106469 0 -0.0010039)
(0.0108219 0 -0.00113406)
(0.0110173 0 -0.00128353)
(0.0112356 0 -0.00145574)
(0.0114793 0 -0.00165487)
(0.0117517 0 -0.00188607)
(0.0120558 0 -0.00215571)
(0.0123951 0 -0.00247177)
(0.0127734 0 -0.00284435)
(0.013194 0 -0.00328633)
(0.0136599 0 -0.00381436)
(0.0141728 0 -0.00445006)
(0.0147313 0 -0.00522162)
(0.0153287 0 -0.00616563)
(0.0159482 0 -0.00732886)
(0.0165554 0 -0.00876886)
(0.0170873 0 -0.0105513)
(0.0174358 0 -0.0127398)
(0.0174306 0 -0.015371)
(0.0168245 0 -0.0184056)
(0.0153092 0 -0.0216383)
(0.0126396 0 -0.0245774)
(0.00892352 0 -0.0264658)
(0.00472467 0 -0.0267419)
(0.000848002 0 -0.02528)
(-0.00198042 0 -0.0225239)
(-0.00356459 0 -0.019301)
(-0.00416982 0 -0.0161635)
(-0.00411185 0 -0.0133704)
(-0.00365803 0 -0.0109932)
(-0.00300126 0 -0.00900958)
(-0.00226729 0 -0.00735922)
(-0.00152613 0 -0.00597443)
(-0.000818152 0 -0.00479638)
(-0.000391486 0 -0.00377766)
(5.63226e-06 0 -0.000236543)
(2.88858e-05 0 -0.000474205)
(0.00010454 0 -0.000916285)
(0.000271746 0 -0.00155959)
(0.000569425 0 -0.00239103)
(0.00103375 0 -0.00338711)
(0.0016957 0 -0.00451227)
(0.0025781 0 -0.0057185)
(0.00369254 0 -0.00694693)
(0.00503671 0 -0.00813125)
(0.00659298 0 -0.00920314)
(0.00832873 0 -0.010099)
(0.0101987 0 -0.0107665)
(0.0121493 0 -0.0111699)
(0.0141233 0 -0.0112928)
(0.0160654 0 -0.0111377)
(0.0179259 0 -0.0107236)
(0.0196635 0 -0.010082)
(0.0212466 0 -0.00925231)
(0.0226532 0 -0.00827774)
(0.0238703 0 -0.0072017)
(0.0248928 0 -0.00606525)
(0.0257215 0 -0.0049054)
(0.0263622 0 -0.00375405)
(0.026824 0 -0.00263765)
(0.0271186 0 -0.00157713)
(0.027259 0 -0.000588129)
(0.0272589 0 0.00031874)
(0.0271318 0 0.00113703)
(0.0268924 0 0.00186318)
(0.0265547 0 0.00249603)
(0.0261324 0 0.00303646)
(0.0256388 0 0.00348712)
(0.0250865 0 0.00385207)
(0.0244872 0 0.00413644)
(0.0238516 0 0.00434618)
(0.0231898 0 0.00448778)
(0.0225106 0 0.004568)
(0.0218221 0 0.00459375)
(0.0211315 0 0.00457183)
(0.0204451 0 0.00450889)
(0.0197682 0 0.00441126)
(0.0191057 0 0.00428488)
(0.0184613 0 0.00413527)
(0.0178383 0 0.00396747)
(0.0172392 0 0.00378603)
(0.0166661 0 0.00359499)
(0.0161204 0 0.00339792)
(0.0156031 0 0.00319791)
(0.0151148 0 0.0029976)
(0.0146556 0 0.00279921)
(0.0142254 0 0.0026046)
(0.0138238 0 0.00241526)
(0.0134502 0 0.00223238)
(0.0131037 0 0.00205685)
(0.0127835 0 0.00188936)
(0.0124884 0 0.00173035)
(0.0122173 0 0.0015801)
(0.011969 0 0.00143874)
(0.0117421 0 0.00130626)
(0.0115355 0 0.00118255)
(0.0113479 0 0.00106741)
(0.0111781 0 0.000960594)
(0.0110247 0 0.000861767)
(0.0108867 0 0.000770576)
(0.0107628 0 0.000686633)
(0.0106521 0 0.000609529)
(0.0105535 0 0.000538844)
(0.010466 0 0.000474151)
(0.0103886 0 0.00041502)
(0.0103207 0 0.000361028)
(0.0102613 0 0.000311757)
(0.0102097 0 0.000266796)
(0.0101653 0 0.000225748)
(0.0101275 0 0.000188224)
(0.0100956 0 0.000153852)
(0.0100693 0 0.000122271)
(0.0100481 0 9.31306e-05)
(0.0100316 0 6.60966e-05)
(0.0100194 0 4.08448e-05)
(0.0100113 0 1.70631e-05)
(0.0100071 0 -5.55083e-06)
(0.0100065 0 -2.72931e-05)
(0.0100094 0 -4.8456e-05)
(0.0100157 0 -6.93314e-05)
(0.0100254 0 -9.02137e-05)
(0.0100385 0 -0.000111401)
(0.0100549 0 -0.000133199)
(0.0100748 0 -0.000155922)
(0.0100983 0 -0.000179901)
(0.0101256 0 -0.000205483)
(0.0101568 0 -0.000233041)
(0.0101923 0 -0.000262978)
(0.0102323 0 -0.000295731)
(0.0102774 0 -0.000331783)
(0.0103279 0 -0.000371671)
(0.0103843 0 -0.000415992)
(0.0104472 0 -0.000465422)
(0.0105173 0 -0.000520727)
(0.0105953 0 -0.000582778)
(0.0106822 0 -0.000652578)
(0.0107787 0 -0.00073128)
(0.010886 0 -0.000820224)
(0.0110053 0 -0.000920969)
(0.0111378 0 -0.00103534)
(0.0112849 0 -0.00116549)
(0.0114482 0 -0.00131396)
(0.0116295 0 -0.00148377)
(0.0118304 0 -0.00167855)
(0.012053 0 -0.00190266)
(0.0122992 0 -0.00216138)
(0.0125709 0 -0.00246115)
(0.0128701 0 -0.00280989)
(0.0131981 0 -0.00321737)
(0.0135555 0 -0.00369572)
(0.0139418 0 -0.00426004)
(0.0143537 0 -0.00492914)
(0.0147844 0 -0.00572622)
(0.0152203 0 -0.00667945)
(0.0156377 0 -0.00782182)
(0.0159975 0 -0.00918943)
(0.0162378 0 -0.0108165)
(0.0162667 0 -0.0127248)
(0.0159564 0 -0.0149035)
(0.0151463 0 -0.0172776)
(0.0136692 0 -0.0196628)