/*--------------------------------*- C++ -*----------------------------------*\
  =========                 |
  \\      /  F ield         | OpenFOAM: The Open Source CFD Toolbox
   \\    /   O peration     | Website:  https://openfoam.org
    \\  /    A nd           | Version:  13
     \\/     M anipulation  |
\*---------------------------------------------------------------------------*/
FoamFile
{
    format      ascii;
    class       volScalarField;
    location    "109.831886";
    object      T;
}
// * * * * * * * * * * * * * * * * * * * * * * * * * * * * * * * * * * * * * //

dimensions      [0 0 0 1 0 0 0];

internalField   nonuniform List<scalar> 
5712
(
925.016
924.77
924.356
923.977
923.341
922.959
921.905
921.598
922.161
921.803
923.286
922.922
924.095
923.749
924.696
924.434
923.056
922.573
922.403
921.735
921.317
920.693
920.722
919.932
925.926
927.414
925.661
927.048
925.308
926.731
924.896
926.236
923.903
924.661
923.209
924.167
925.887
925.072
921.586
920.386
920.942
920.05
920.008
919.005
919.239
918.479
923.077
921.821
922.357
921.41
924.255
923.036
929.114
930.109
928.404
929.433
928.424
929.675
927.594
928.737
927.416
929.114
926.158
927.723
925.193
926.737
924.106
925.672
922.722
922.511
921.679
921.584
920.419
920.141
919.601
919.321
923.677
923.999
924.916
924.993
920.799
920.815
920.004
920.177
918.862
918.63
918.165
918.039
922.667
923.177
921.776
922.513
925.632
927.524
926.393
928.534
926.981
928.929
927.44
929.671
924.525
926.358
925.534
927.629
923.552
925.354
924.861
926.92
931.501
933.705
931.863
934.059
930.857
932.9
931.519
933.609
929.76
931.321
930.928
932.645
924.213
921.481
926.688
928.556
930.564
921.844
924.73
927.673
929.672
931.857
921.174
923.748
926.243
928.601
930.901
935.74
936.705
936.891
937.755
934.711
935.823
936.199
937.133
932.925
934.171
935.015
936.13
922.442
923.423
925.598
926.955
928.502
929.92
930.829
932.24
933.918
935.347
921.614
922.405
924.496
925.921
927.205
928.839
929.902
931.677
933.301
935.183
923.219
924.829
922.062
923.488
920.392
920.816
919.365
919.58
924.927
926.846
926.059
928.095
921.079
922.512
920.45
921.818
918.537
918.738
917.946
918.082
923.894
925.853
923.257
925.172
928.188
930.532
932.227
935.092
929.096
931.553
932.826
935.633
927.347
929.62
931.65
934.471
926.552
928.848
930.812
933.482
936.941
937.306
938.072
937.167
937.265
937.956
936.282
936.752
937.566
936.672
936.81
937.558
934.92
935.565
936.481
935.92
936.17
937.013
924.629
926.017
927.503
928.39
929.591
930.897
931.247
932.267
933.408
933.309
934.15
935.237
935.329
935.704
936.695
923.516
925.066
926.745
927.806
929.427
931.087
930.748
932.163
933.641
933.128
934.159
935.453
935.308
935.811
936.956
918.219
917.719
917.781
917.14
919.618
918.997
919.111
918.346
917.872
916.789
917.753
916.742
917.587
916.618
917.374
916.463
916.677
917.095
916.42
916.909
916.447
916.103
916.643
916.065
917.736
917.086
916.397
915.857
916.019
915.497
915.905
915.374
915.701
914.738
915.882
914.969
915.582
914.585
915.632
914.702
915.48
914.385
915.253
914.243
915.083
914.184
914.628
913.874
917.034
916.588
916.471
915.966
918.504
918.113
917.836
917.409
915.51
914.911
916
915.454
915.916
915.427
915.362
914.95
917.201
916.802
916.585
916.267
915.026
914.436
914.523
914.015
914.7
913.818
914.206
913.664
915.093
914.156
914.681
914.062
914.308
913.518
913.79
913.32
913.872
913.197
913.423
913.022
915.705
916.135
914.825
915.284
915.707
916.163
914.767
915.244
915.709
916.122
914.674
915.103
917.429
919.164
916.335
915.479
914.556
919.495
917.775
916.744
915.903
914.935
918.853
917.166
915.957
915.138
914.455
916.902
917.967
916.064
917.101
916.856
917.87
915.946
916.942
916.723
917.68
915.716
916.646
919.923
920.729
918.103
918.924
917.055
917.903
916.259
917.125
915.351
916.228
919.111
919.571
917.384
917.849
916.21
916.776
915.451
916.152
914.856
915.739
916.464
916.598
915.826
915.774
918.038
918.119
917.266
917.107
914.893
915.077
915.439
915.778
915.337
915.139
914.864
914.616
916.667
916.367
916.133
915.772
914.455
914.512
914.033
914.045
914.305
914.738
914.009
914.715
914.806
915.372
914.401
915.208
913.896
914.214
913.671
914.285
913.553
913.823
913.371
913.904
919.423
920.867
922.228
918.896
920.529
921.894
919.234
920.696
922.088
918.665
920.309
921.733
918.96
920.394
921.806
918.29
920.012
921.532
921.827
923.209
924.709
920.051
921.488
923.021
919.053
920.554
922.115
918.349
919.847
921.356
917.88
919.691
921.348
920.435
921.927
923.624
918.761
920.286
921.991
917.829
919.449
921.206
917.4
919.11
920.883
917.47
919.369
921.19
914.301
914.872
916.475
919.476
914.57
915.185
916.845
919.874
914.185
914.78
916.389
919.419
914.359
915.018
916.693
919.731
914.033
914.663
916.204
919.144
913.97
914.682
916.329
919.332
914.021
914.819
916.584
919.663
913.853
914.749
916.587
919.688
913.676
914.437
916.044
919.019
913.729
914.546
916.014
918.689
913.93
914.608
916.058
918.818
914.013
914.744
916.106
918.625
913.471
914.313
916.049
919.134
913.481
914.375
915.931
918.669
913.262
914.184
915.982
919.051
913.266
914.226
915.829
918.555
914.346
914.85
916.305
919.128
914.723
915.142
916.379
918.843
914.315
914.835
916.27
919.076
914.708
915.147
916.378
918.82
914.27
914.825
916.212
918.936
914.631
915.12
916.353
918.765
914.259
914.859
916.176
918.739
914.558
915.101
916.319
918.663
914.297
914.948
916.204
918.55
915.307
915.649
916.76
918.513
915.963
916.257
917.393
919.036
915.235
915.61
916.729
918.479
915.888
916.221
917.371
919.02
915.105
915.541
916.688
918.451
915.758
916.158
917.338
918.991
914.916
915.437
916.61
918.381
915.58
916.067
917.284
918.951
914.67
915.3
916.515
918.304
915.371
915.962
917.225
918.91
914.198
915.034
916.387
918.245
914.83
915.651
917.031
918.778
914.43
915.168
916.455
918.28
915.1
915.808
917.129
918.842
913.989
914.909
916.325
918.217
914.58
915.504
916.942
918.708
913.789
914.781
916.239
918.146
914.353
915.361
916.848
918.634
924.085
927.817
931.01
933.619
935.641
924.318
928.01
931.194
933.801
935.821
924.059
927.804
931.001
933.613
935.635
924.278
927.983
931.173
933.783
935.804
924.008
927.781
930.986
933.601
935.624
924.11
927.838
931.037
933.652
935.675
924.204
927.936
931.14
933.757
935.782
924.15
927.897
931.11
933.733
935.76
923.976
927.763
930.975
933.593
935.618
924.167
928.04
931.264
933.883
935.907
924.018
927.83
931.043
933.659
935.683
924.227
928.103
931.325
933.942
935.964
923.973
927.763
930.98
933.602
935.628
924.189
928.07
931.299
933.921
935.946
923.917
927.726
930.952
933.579
935.608
924.177
928.075
931.312
933.938
935.965
924.112
927.905
931.107
933.717
935.737
924.388
928.239
931.444
934.052
936.07
924.106
927.912
931.117
933.728
935.749
924.382
928.239
931.447
934.056
936.075
924.112
927.941
931.152
933.765
935.787
924.385
928.255
931.467
934.078
936.097
924.195
928.061
931.279
933.894
935.916
924.433
928.314
931.529
934.142
936.162
924.36
928.241
931.46
934.075
936.096
941.662
942.302
941.383
942.036
940.876
941.599
940.234
941.078
939.603
940.576
938.622
939.752
939.126
940.229
938.119
939.211
937.592
938.587
948.803
956.66
963.298
968.485
972.041
948.684
956.597
963.31
968.531
972.147
948.678
956.595
963.256
968.454
972.014
948.573
956.551
963.269
968.52
972.127
948.428
956.454
963.163
968.384
971.953
948.331
956.415
963.179
968.453
972.069
948.09
956.252
963.026
968.28
971.863
948.022
956.231
963.055
968.359
971.989
947.697
955.995
962.846
968.143
971.745
947.69
956.014
962.902
968.241
971.886
946.851
955.362
962.367
967.758
971.4
946.932
955.449
962.475
967.893
971.566
947.275
955.687
962.618
967.963
971.587
947.332
955.755
962.713
968.091
971.75
946.423
955.028
962.103
967.54
971.202
946.476
955.092
962.191
967.656
971.348
945.982
954.679
961.826
967.311
970.996
945.973
954.707
961.877
967.395
971.121
916.745
917.745
918.556
917.413
918.753
918.61
918.577
918.383
918.922
918.653
920.248
919.93
920.918
920.559
919.918
919.62
919.517
919.314
919.426
919.268
917.428
917.108
919.709
920.789
921.172
921.254
920.259
920.09
921.394
919.77
922.493
924.182
919.973
920.516
921.81
920.29
920.9
920.965
918.978
918.777
919.416
919.137
918.85
918.547
918.809
919.223
920.674
920.374
919.897
919.601
917.875
917.42
918.09
917.707
918.105
918.27
918.914
919.849
918.913
915.66
914.741
914.335
914.353
914.808
915.813
915.058
914.712
914.811
915.407
918.86
918.46
918.415
918.747
919.477
919.972
919.608
919.599
919.959
920.702
920.342
919.962
919.935
920.281
921.015
920.438
920.076
920.067
920.427
921.169
919.42
919.031
918.995
919.335
920.068
918.155
916.97
916.336
916.184
916.502
919.334
918.057
917.388
917.236
917.613
918.416
917.534
917.053
917.055
917.602
920.593
919.369
918.752
918.657
919.13
922.325
921.072
920.446
920.347
920.822
918.915
918.29
918.029
918.196
918.837
919.274
918.478
918.072
918.133
918.716
920.608
919.843
919.461
919.54
920.133
919.308
918.759
918.567
918.785
919.453
919.854
919.237
918.983
919.156
919.798
920.003
919.472
919.297
919.527
920.2
917.215
916.205
915.682
915.606
915.995
917.588
916.851
916.491
916.579
917.174
918.415
917.848
917.639
917.845
918.507
918.184
917.669
917.51
917.754
918.437
917.816
917.219
916.983
917.168
917.819
917.574
917.04
916.863
917.094
917.77
917.907
917.449
917.347
917.636
918.343
918.327
917.875
917.776
918.068
918.776
919.788
919.342
919.248
919.541
920.248
919.514
919.1
919.038
919.357
920.078
918.964
918.467
918.324
918.581
919.269
918.698
918.237
918.129
918.413
919.116
916.163
915.221
914.783
914.774
915.201
916.212
915.5
915.181
915.3
915.911
916.688
915.856
915.435
915.456
915.953
916.64
916.024
915.776
915.952
916.597
917.101
916.538
916.336
916.547
917.212
917.108
916.4
916.063
916.167
916.77
918.003
917.535
917.422
917.702
918.405
918.985
918.568
918.504
918.823
919.544
917.975
917.476
917.332
917.589
918.279
917.556
918.065
917.598
918.162
916.244
916.835
916.221
916.745
917.645
917.713
918.191
918.083
916.259
916.287
916.806
916.643
918.932
920.273
919.385
920.672
918.938
920.154
919.473
920.665
919.501
919.026
919.222
918.91
919.971
920.447
918.86
919.432
918.61
919.247
917.521
918.127
917.166
917.759
920.151
920.767
919.771
920.488
921.125
921.879
921.491
922.535
921.83
922.821
921.41
922.656
921.855
922.955
921.199
922.902
921.498
923.003
922.126
923.668
923.003
924.58
918.13
918.466
918.39
918.778
916.397
916.501
916.678
916.768
920.027
921.019
919.797
920.693
918.811
919.154
919.355
919.622
917.088
917.111
917.588
917.53
920.453
921.413
921.048
921.926
921.716
923.606
923.336
925.495
921.573
923.615
923.059
925.339
922.126
923.931
923.719
925.815
922.759
924.539
924.256
926.315
921.61
922.259
922.778
923.801
921.516
922.047
922.96
923.939
921.335
921.621
923.284
924.091
918.065
916.275
919.815
921.682
924.038
916.217
917.921
919.67
921.64
924.463
916.361
918.283
920.49
922.896
925.37
923.295
923.737
926.458
927.367
922.811
923.255
926.265
927.173
922.091
922.453
926.028
926.942
916.246
916.472
918.064
918.342
919.959
920.243
922.237
922.612
926.319
927.3
916.357
916.583
918.474
919.067
920.876
921.643
923.659
924.588
927.412
928.61
918.955
919.998
919.224
920.292
916.546
916.599
916.771
916.757
921.941
923.5
921.601
923.077
919.451
920.683
919.915
921.231
917.045
917.099
917.454
917.552
922.177
923.931
922.695
924.556
925.188
927.227
929.323
931.927
924.659
926.635
928.585
931.019
925.587
927.702
929.944
932.631
925.958
928.214
930.268
932.906
923.87
924.23
926.699
926.709
923.406
923.808
926.576
926.543
922.714
923.31
926.448
926.44
916.95
917.808
918.865
919.672
920.699
921.393
922.973
923.619
926.66
926.584
917.051
917.97
919.869
920.71
922.342
922.954
924.829
925.059
927.377
927.1
914.052
914.01
914.582
914.353
915.036
914.993
915.596
915.355
913.352
912.841
913.851
913.321
913.37
912.897
913.909
913.401
913.819
913.36
913.76
913.414
913.005
913.438
914.849
915.441
915.846
916.426
914.466
915.143
914.269
914.866
914.063
914.678
912.52
912.282
912.986
912.722
912.533
912.246
913.02
912.691
912.583
912.204
912.95
912.514
913.513
913.014
914.052
913.447
913.828
913.778
914.078
913.95
914.942
914.912
915.212
915.134
913.313
913.141
913.088
913.005
914.443
914.212
914.877
914.541
915.598
915.438
916.061
915.809
913.657
913.364
914.066
913.654
912.754
912.33
912.661
912.416
912.553
912.203
912.553
912.344
913.077
912.573
912.851
912.559
913.458
912.874
913.106
912.765
912.318
912.404
912.114
912.254
912.368
912.461
912.121
912.274
912.474
912.551
912.154
912.291
913.732
914.825
913.009
912.515
912.224
914.835
913.788
913.08
912.589
912.322
914.798
913.71
912.967
912.535
912.353
912.746
913.339
912.665
913.308
912.751
913.304
912.635
913.252
912.771
913.262
912.591
913.156
914.834
915.054
913.788
914.068
913.139
913.496
912.714
913.135
912.549
913.063
914.727
914.793
913.658
913.768
912.976
913.203
912.62
912.983
912.548
913.058
913.608
913.527
913.806
913.61
914.726
914.549
914.966
914.646
913.107
913.132
912.946
913.061
914.133
913.849
914.463
914.193
915.318
914.913
915.686
915.298
913.381
913.345
913.675
913.661
912.746
913.004
912.724
913.211
912.627
912.957
912.61
913.133
912.949
913.176
912.895
913.387
913.225
913.469
913.114
913.614
914.062
914.735
914.242
915.04
913.978
914.7
914.17
915.014
913.903
914.697
914.056
915.034
915.531
916.394
914.599
915.486
914.062
914.961
913.762
914.686
913.969
915.119
915.164
916.159
914.217
915.263
913.779
914.879
913.711
914.863
914.065
915.365
912.6
913.727
915.695
918.949
913.007
914.131
916.123
919.384
912.573
913.693
915.654
918.932
912.962
914.073
916.048
919.297
912.551
913.663
915.525
918.697
912.794
913.886
915.779
918.96
913.231
914.283
916.214
919.41
913.566
914.554
916.452
919.594
912.656
913.744
915.561
918.682
912.856
913.952
915.59
918.375
912.596
913.705
915.435
918.396
912.818
913.935
915.544
918.229
912.821
913.871
915.736
918.909
912.946
914.009
915.664
918.461
913.037
914.031
915.873
918.972
913.084
914.102
915.738
918.483
912.469
913.592
915.449
918.547
912.658
913.773
915.448
918.197
912.493
913.614
915.443
918.521
912.697
913.814
915.473
918.196
912.555
913.673
915.433
918.421
912.746
913.865
915.504
918.187
912.676
913.796
915.453
918.259
912.815
913.938
915.533
918.134
912.848
913.974
915.536
918.09
913.099
914.208
915.782
917.771
913.676
914.783
916.384
918.24
913.096
914.209
915.777
917.76
913.674
914.788
916.389
918.245
913.102
914.222
915.794
917.779
913.682
914.806
916.409
918.257
913.111
914.241
915.797
917.775
913.691
914.828
916.429
918.273
913.135
914.275
915.808
917.769
913.716
914.869
916.465
918.304
913.308
914.433
915.958
917.899
913.83
914.982
916.558
918.396
913.204
914.344
915.878
917.831
913.749
914.91
916.499
918.335
913.446
914.542
916.058
917.995
913.971
915.094
916.651
918.472
913.607
914.657
916.149
918.071
914.152
915.225
916.752
918.555
923.773
927.625
930.889
933.538
935.577
924.019
927.825
931.077
933.723
935.76
923.773
927.628
930.891
933.539
935.577
924.016
927.821
931.071
933.715
935.751
923.756
927.627
930.89
933.536
935.573
923.893
927.704
930.953
933.595
935.631
924.053
927.843
931.081
933.718
935.751
924.093
927.861
931.088
933.718
935.748
923.78
927.643
930.9
933.543
935.578
923.994
927.935
931.199
933.839
935.872
923.787
927.69
930.955
933.601
935.637
924.02
927.979
931.247
933.89
935.923
923.838
927.68
930.928
933.567
935.6
924.071
927.998
931.254
933.891
935.922
923.87
927.697
930.934
933.567
935.598
924.135
928.05
931.296
933.928
935.956
923.784
927.707
930.982
933.633
935.672
924.05
928.036
931.317
933.967
936.003
923.798
927.725
931
933.65
935.688
924.059
928.046
931.326
933.975
936.011
923.835
927.773
931.047
933.695
935.732
924.09
928.079
931.357
934.004
936.039
923.947
927.913
931.186
933.832
935.867
924.172
928.158
931.432
934.076
936.11
924.132
928.104
931.375
934.017
936.051
933.186
933.918
933.285
934.034
933.513
934.282
933.879
934.633
934.471
935.124
935.982
936.836
935.307
936.049
936.56
937.5
937.079
938.031
942.597
952.196
959.942
965.797
969.677
942.382
952.081
959.927
965.826
969.775
942.69
952.262
959.99
965.834
969.708
942.503
952.175
959.979
965.888
969.816
942.878
952.393
960.084
965.906
969.769
942.686
952.3
960.067
965.956
969.874
943.17
952.594
960.229
966.02
969.868
942.956
952.483
960.199
966.058
969.963
943.587
952.876
960.435
966.184
970.012
943.305
952.716
960.367
966.192
970.08
944.587
953.575
960.956
966.6
970.372
944.401
953.462
960.914
966.617
970.437
944.079
953.206
960.678
966.379
970.182
943.807
953.043
960.605
966.378
970.238
945.067
953.945
961.243
966.832
970.572
944.965
953.888
961.237
966.872
970.654
945.534
954.319
961.539
967.074
970.785
945.48
954.312
961.561
967.136
970.89
915.99
916.937
916.292
915.303
914.076
914.585
914.065
914.647
915.05
915.653
915.049
915.567
924.813
924.657
924.265
923.64
922.797
921.784
924.882
924.735
924.362
923.777
923.008
922.105
925.224
925.843
925.048
925.641
924.607
925.141
923.897
924.322
922.946
923.275
921.843
922.198
920.7
919.678
918.81
918.103
917.579
917.193
921.145
920.217
919.388
918.695
918.158
917.778
924.053
923.753
923.804
924.21
924.971
923.896
923.593
923.643
924.048
924.808
923.499
923.193
923.239
923.641
924.401
922.868
922.555
922.595
922.993
923.751
922.016
921.692
921.722
922.112
922.868
920.987
920.647
920.661
921.039
921.79
924.122
923.821
923.872
924.276
925.036
923.973
923.669
923.718
924.121
924.88
923.595
923.288
923.332
923.732
924.491
923.004
922.689
922.727
923.122
923.879
922.225
921.899
921.926
922.314
923.068
921.308
920.966
920.978
921.354
922.103
924.466
924.167
924.22
924.625
925.385
925.087
924.788
924.841
925.246
926.005
924.288
923.987
924.038
924.442
925.202
924.883
924.582
924.633
925.037
925.795
923.843
923.538
923.585
923.987
924.746
924.378
924.074
924.12
924.522
925.279
923.126
922.814
922.855
923.252
924.01
923.552
923.239
923.279
923.675
924.432
922.165
921.842
921.871
922.261
923.016
922.493
922.168
922.195
922.582
923.336
921.047
920.706
920.72
921.097
921.848
921.4
921.057
921.066
921.441
922.189
919.881
919.516
919.505
919.865
920.608
918.828
918.428
918.382
918.715
919.445
917.914
917.465
917.371
917.667
918.378
917.144
916.629
916.475
916.724
917.411
916.545
915.964
915.754
915.961
916.624
916.108
915.489
915.25
915.435
916.087
920.328
919.963
919.952
920.312
921.053
919.372
918.978
918.937
919.273
920.004
918.508
918.075
917.997
918.305
919.021
917.774
917.297
917.178
917.455
918.156
917.198
916.682
916.528
916.778
917.465
916.794
916.258
916.086
916.323
917.004
924.729
924.405
923.844
923.05
922.036
920.848
924.799
924.485
923.946
923.197
922.269
921.219
925.137
925.751
924.786
925.365
924.169
924.679
923.279
923.669
922.147
922.433
920.843
921.122
919.603
918.475
917.592
917.025
916.826
916.92
920.143
919.157
918.36
917.819
917.564
917.567
923.969
923.669
923.721
924.128
924.889
923.644
923.343
923.394
923.8
924.562
923.08
922.776
922.825
923.23
923.992
922.281
921.971
922.016
922.418
923.18
921.258
920.941
920.978
921.376
922.137
920.058
919.728
919.753
920.142
920.901
924.039
923.738
923.789
924.195
924.955
923.723
923.421
923.471
923.876
924.637
923.181
922.875
922.923
923.326
924.087
922.426
922.115
922.158
922.558
923.319
921.49
921.17
921.205
921.6
922.359
920.428
920.096
920.118
920.505
921.261
924.379
924.08
924.133
924.539
925.3
924.995
924.697
924.75
925.156
925.915
924.027
923.726
923.778
924.184
924.945
924.608
924.308
924.361
924.766
925.526
923.406
923.103
923.152
923.557
924.319
923.918
923.615
923.665
924.069
924.83
922.511
922.202
922.248
922.65
923.412
922.901
922.593
922.638
923.039
923.8
921.37
921.054
921.092
921.489
922.25
921.656
921.338
921.375
921.771
922.531
920.054
919.725
919.752
920.142
920.901
920.333
920.003
920.029
920.417
921.175
918.794
918.445
918.452
918.827
919.581
917.64
917.262
917.241
917.596
918.34
916.718
916.297
916.235
916.558
917.287
916.091
915.609
915.49
915.769
916.474
915.814
915.261
915.079
915.31
915.989
915.844
915.237
915.009
915.204
915.861
919.334
918.983
918.988
919.361
920.112
918.324
917.947
917.926
918.28
919.022
917.495
917.082
917.027
917.355
918.085
916.914
916.459
916.363
916.659
917.373
916.616
916.117
915.98
916.245
916.942
916.588
916.058
915.893
916.135
916.82
916.956
916.739
918.326
919.597
919.688
919.978
918.809
916.197
916.568
916.26
917.393
917.111
916.982
917.727
917.907
918.372
916.088
916.077
916.938
917.01
916.486
916.621
917.293
917.461
918.623
918.611
917.671
917.651
916.493
916.405
916.021
916.287
916.391
916.056
917.204
918.213
916.985
915.219
914.342
913.967
914.011
914.492
915.462
914.728
914.402
914.518
915.125
917.497
917.125
917.11
917.469
918.216
918.792
918.447
918.458
918.836
919.592
918.878
918.526
918.529
918.902
919.654
919.177
918.834
918.848
919.228
919.983
917.991
917.63
917.626
917.994
918.744
914.67
913.873
913.536
913.616
914.098
915.088
914.324
914.022
914.136
914.666
915.152
914.525
914.281
914.465
915.116
916.076
915.396
915.155
915.323
915.94
916.184
915.709
915.597
915.882
916.591
915.97
915.421
915.245
915.481
916.163
916.841
916.406
916.33
916.642
917.364
917.002
916.546
916.45
916.747
917.461
917.5
917.08
917.017
917.338
918.065
914.59
913.813
913.491
913.582
914.084
915.029
914.449
914.243
914.456
915.124
916.029
915.571
915.475
915.772
916.487
916.121
915.684
915.608
915.92
916.644
915.542
915.052
914.926
915.201
915.904
915.706
915.243
915.142
915.435
916.149
916.422
916.005
915.947
916.274
917.005
916.604
916.201
916.157
916.493
917.23
917.781
917.394
917.363
917.709
918.448
917.781
917.409
917.393
917.751
918.496
916.803
916.387
916.33
916.657
917.387
916.795
916.394
916.35
916.688
917.424
914.87
914.049
913.701
913.768
914.266
915.24
914.581
914.314
914.476
915.115
914.744
914.049
913.755
913.883
914.451
915.27
914.714
914.528
914.756
915.433
915.44
914.943
914.809
915.078
915.778
914.998
914.408
914.191
914.393
915.056
916.333
915.915
915.856
916.183
916.913
917.379
917.001
916.98
917.336
918.08
916.098
915.665
915.591
915.906
916.63
917.374
916.674
916.401
916.529
917.019
917.96
917.393
917.454
916.053
916.029
917.513
917.622
916.09
916.143
918.829
920.324
918.84
920.187
918.975
918.898
919.94
917.361
917.427
916.004
915.972
917.492
917.599
916.051
916.126
918.916
920.5
918.921
920.321
919.047
918.93
920.054
917.386
917.458
915.995
915.955
917.526
917.636
916.053
916.129
918.997
920.912
919.002
920.676
919.125
918.998
920.349
917.651
917.72
916.227
916.184
917.793
917.92
916.285
916.373
919.367
921.388
919.353
921.132
919.453
919.303
920.739
918.113
918.176
916.69
916.649
918.245
918.394
916.745
916.828
919.837
921.723
919.812
921.518
919.888
919.77
921.134
918.935
918.991
917.537
917.499
919.041
919.162
917.587
917.657
920.564
922.308
920.524
922.114
920.582
920.457
921.725
913.88
913.87
914.85
914.848
913.889
913.901
914.866
914.891
913.167
912.619
913.2
912.703
913.207
913.295
912.867
913.818
913.819
914.794
914.783
913.854
913.886
914.825
914.855
913.075
912.621
913.127
912.724
913.171
913.288
912.895
913.792
913.808
914.775
914.753
913.863
913.914
914.823
914.873
913.125
912.811
913.189
912.902
913.264
913.385
913.06
914.023
914.048
915.001
914.973
914.116
914.187
915.056
915.105
913.417
913.237
913.49
913.321
913.594
913.737
913.469
914.511
914.54
915.475
915.446
914.625
914.724
915.529
915.583
913.961
913.861
914.041
913.927
914.157
914.314
914.05
915.401
915.43
916.343
916.315
915.515
915.599
916.396
916.445
914.862
914.671
914.937
914.742
915.033
915.165
914.868
925.061
924.828
924.366
923.986
923.348
922.966
921.91
921.603
922.166
921.808
923.294
922.93
924.106
923.759
924.751
924.502
923.061
922.576
922.408
921.738
921.321
920.696
920.726
919.934
925.96
927.438
925.707
927.085
925.316
926.737
924.902
926.24
923.908
924.666
923.212
924.17
925.892
925.076
921.589
920.387
920.944
920.051
920.011
919.006
919.241
918.48
923.08
921.823
922.36
921.412
924.258
923.038
929.137
930.13
928.437
929.465
928.428
929.678
927.596
928.739
927.419
929.116
926.161
927.725
925.195
926.739
924.107
925.673
922.724
922.513
921.681
921.586
920.421
920.142
919.603
919.323
923.679
924.001
924.918
924.995
920.801
920.817
920.005
920.178
918.863
918.632
918.167
918.04
922.669
923.178
921.777
922.514
925.634
927.526
926.394
928.535
926.983
928.932
927.441
929.673
924.527
926.36
925.536
927.63
923.554
925.355
924.862
926.921
931.528
933.734
931.882
934.078
930.859
932.901
931.522
933.612
929.762
931.322
930.931
932.647
924.215
921.482
926.69
928.557
930.566
921.845
924.731
927.675
929.673
931.858
921.176
923.75
926.244
928.603
930.903
935.771
936.736
936.909
937.772
934.711
935.822
936.2
937.134
932.926
934.171
935.017
936.131
922.443
923.424
925.599
926.956
928.504
929.921
930.83
932.241
933.919
935.348
921.615
922.406
924.498
925.922
927.207
928.841
929.903
931.678
933.302
935.184
923.22
924.83
922.064
923.49
920.393
920.817
919.366
919.581
924.928
926.847
926.06
928.096
921.08
922.514
920.451
921.819
918.539
918.739
917.947
918.083
923.895
925.854
923.259
925.173
928.189
930.533
932.228
935.093
929.097
931.555
932.827
935.635
927.348
929.621
931.651
934.472
926.553
928.849
930.813
933.483
936.969
937.331
938.095
937.185
937.281
937.971
936.281
936.752
937.566
936.673
936.812
937.56
934.92
935.565
936.482
935.921
936.171
937.014
924.63
926.018
927.504
928.391
929.592
930.898
931.248
932.268
933.409
933.31
934.151
935.238
935.33
935.705
936.696
923.517
925.067
926.745
927.807
929.427
931.088
930.749
932.164
933.642
933.129
934.16
935.453
935.309
935.812
936.957
918.221
917.721
917.782
917.141
919.621
918.999
919.113
918.347
917.888
916.806
917.776
916.766
917.588
916.619
917.374
916.463
916.677
917.096
916.42
916.91
916.448
916.103
916.644
916.066
917.738
917.087
916.398
915.857
916.02
915.498
915.905
915.374
915.715
914.747
915.903
914.985
915.583
914.585
915.632
914.702
915.48
914.385
915.254
914.243
915.084
914.184
914.629
913.874
917.035
916.589
916.472
915.967
918.506
918.115
917.837
917.411
915.511
914.911
916
915.455
915.917
915.428
915.363
914.951
917.202
916.803
916.586
916.268
915.027
914.437
914.523
914.016
914.701
913.818
914.207
913.665
915.093
914.157
914.681
914.062
914.308
913.519
913.791
913.321
913.873
913.197
913.424
913.023
915.712
916.14
914.83
915.285
915.707
916.163
914.768
915.244
915.71
916.123
914.675
915.104
917.43
919.165
916.336
915.48
914.557
919.496
917.776
916.745
915.904
914.936
918.854
917.167
915.958
915.138
914.456
916.905
917.972
916.064
917.102
916.856
917.87
915.946
916.943
916.723
917.68
915.717
916.647
919.924
920.73
918.104
918.925
917.055
917.903
916.259
917.126
915.352
916.229
919.112
919.572
917.384
917.85
916.211
916.776
915.451
916.152
914.857
915.74
916.465
916.599
915.827
915.775
918.039
918.12
917.268
917.108
914.894
915.078
915.44
915.779
915.338
915.14
914.865
914.616
916.668
916.368
916.133
915.773
914.456
914.512
914.034
914.046
914.306
914.738
914.01
914.716
914.807
915.372
914.401
915.208
913.897
914.215
913.672
914.286
913.554
913.824
913.372
913.905
919.429
920.875
922.235
918.898
920.532
921.898
919.234
920.696
922.088
918.666
920.31
921.734
918.96
920.394
921.807
918.29
920.012
921.532
921.828
923.21
924.71
920.052
921.489
923.022
919.054
920.555
922.116
918.35
919.847
921.356
917.88
919.692
921.348
920.436
921.928
923.625
918.762
920.287
921.992
917.83
919.45
921.207
917.401
919.11
920.884
917.47
919.369
921.191
914.307
914.877
916.481
919.484
914.583
915.197
916.856
919.886
914.186
914.781
916.389
919.419
914.359
915.017
916.693
919.73
914.034
914.664
916.204
919.143
913.97
914.682
916.329
919.332
914.022
914.819
916.584
919.663
913.854
914.749
916.587
919.688
913.677
914.437
916.044
919.019
913.729
914.546
916.014
918.689
913.931
914.608
916.058
918.818
914.014
914.744
916.107
918.625
913.471
914.313
916.049
919.134
913.482
914.375
915.931
918.668
913.262
914.184
915.982
919.051
913.266
914.226
915.829
918.555
914.349
914.851
916.308
919.133
914.723
915.141
916.379
918.845
914.315
914.836
916.271
919.076
914.708
915.148
916.378
918.82
914.27
914.825
916.212
918.936
914.631
915.12
916.353
918.765
914.259
914.859
916.176
918.739
914.558
915.101
916.319
918.663
914.297
914.948
916.204
918.549
915.305
915.646
916.757
918.513
915.96
916.254
917.389
919.033
915.236
915.61
916.73
918.479
915.889
916.221
917.372
919.021
915.106
915.542
916.688
918.451
915.758
916.159
917.339
918.992
914.917
915.438
916.61
918.381
915.581
916.067
917.284
918.951
914.671
915.3
916.516
918.304
915.371
915.962
917.226
918.91
914.198
915.034
916.387
918.245
914.83
915.651
917.031
918.778
914.431
915.168
916.455
918.28
915.1
915.808
917.129
918.842
913.989
914.91
916.325
918.217
914.581
915.504
916.942
918.708
913.789
914.781
916.239
918.146
914.353
915.361
916.848
918.634
924.088
927.818
931.01
933.62
935.641
924.325
928.015
931.198
933.806
935.826
924.059
927.803
931
933.612
935.634
924.276
927.981
931.171
933.782
935.803
924.008
927.78
930.986
933.6
935.624
924.109
927.837
931.036
933.651
935.674
924.203
927.936
931.139
933.756
935.781
924.15
927.896
931.109
933.732
935.759
923.975
927.762
930.974
933.592
935.617
924.167
928.039
931.264
933.883
935.906
924.017
927.829
931.042
933.659
935.682
924.226
928.103
931.325
933.942
935.964
923.972
927.763
930.98
933.601
935.627
924.189
928.07
931.299
933.921
935.945
923.917
927.725
930.952
933.579
935.607
924.176
928.075
931.312
933.938
935.964
924.111
927.903
931.104
933.714
935.735
924.385
928.235
931.439
934.047
936.066
924.107
927.912
931.117
933.728
935.749
924.382
928.24
931.447
934.056
936.075
924.112
927.941
931.151
933.765
935.787
924.385
928.255
931.467
934.078
936.097
924.194
928.061
931.279
933.894
935.916
924.432
928.314
931.529
934.141
936.161
924.36
928.241
931.46
934.074
936.095
941.677
942.314
941.384
942.037
940.876
941.6
940.235
941.079
939.604
940.576
938.623
939.753
939.127
940.23
938.12
939.212
937.593
938.588
948.811
956.665
963.301
968.488
972.044
948.688
956.599
963.31
968.531
972.146
948.679
956.595
963.256
968.454
972.014
948.574
956.552
963.27
968.521
972.128
948.428
956.454
963.163
968.384
971.953
948.332
956.416
963.18
968.454
972.07
948.09
956.252
963.026
968.28
971.864
948.023
956.232
963.055
968.36
971.989
947.698
955.996
962.846
968.143
971.746
947.691
956.014
962.902
968.242
971.887
946.852
955.363
962.368
967.758
971.401
946.932
955.45