/*--------------------------------*- C++ -*----------------------------------*\
  =========                 |
  \\      /  F ield         | OpenFOAM: The Open Source CFD Toolbox
   \\    /   O peration     | Website:  https://openfoam.org
    \\  /    A nd           | Version:  12
     \\/     M anipulation  |
\*---------------------------------------------------------------------------*/
FoamFile
{
    format      ascii;
    class       volScalarField;
    location    "200";
    object      T;
}
// * * * * * * * * * * * * * * * * * * * * * * * * * * * * * * * * * * * * * //

dimensions      [];

internalField   nonuniform List<scalar> 
4480
(
7.37832e-11
1.36998e-08
2.88873e-05
0.0020244
0.0172154
0.0543157
0.108507
0.170695
0.233639
0.29301
0.346719
0.394062
0.435086
0.470207
0.499978
0.52498
0.545767
0.562839
0.576631
0.587521
0.595836
0.60185
0.605796
0.607869
0.608237
0.607043
0.604408
0.600983
0.597515
0.593984
0.590373
0.586661
0.582829
0.578857
0.574726
0.570417
0.565906
0.561172
0.55619
0.550937
0.545387
0.53951
0.533275
0.526654
0.519611
0.512108
0.504106
0.495564
0.486432
0.476656
0.466186
0.454954
0.442885
0.429898
0.4159
0.400784
0.384438
0.366744
0.347586
0.32688
0.304586
0.280748
0.255522
0.229202
0.202227
0.175173
0.148701
0.123502
0.100212
0.0793529
0.0612621
0.0460818
0.0337596
0.0240831
0.0167293
0.011318
0.00745983
0.00479227
0.00300218
0.00183518
0.00109535
0.000638804
0.000364289
0.000207918
0.000121005
7.30235e-05
4.63077e-05
3.10276e-05
2.18958e-05
1.61394e-05
1.23181e-05
9.6747e-06
7.79504e-06
6.43783e-06
5.45284e-06
4.74136e-06
4.23708e-06
3.89565e-06
3.68899e-06
3.60177e-06
3.62981e-06
3.77996e-06
4.07165e-06
4.54095e-06
5.24748e-06
6.28692e-06
7.81207e-06
1.00687e-05
1.34573e-05
1.86416e-05
2.67381e-05
3.96553e-05
6.07023e-05
9.56869e-05
0.000154896
0.000256672
0.000433813
0.000744984
0.00129516
0.00227544
0.00405564
0.00741837
0.0140873
0.0284864
0.0673766
0.168163
0.299089
0.471443
0.386049
0.113988
0.0341439
0.00651297
0.00106569
0.00016999
2.33662e-05
2.51268e-06
1.94356e-07
8.7916e-09
1.7718e-10
8.77424e-13
5.2672e-11
1.34674e-06
0.00066222
0.0179131
0.0821127
0.181699
0.289863
0.389823
0.47528
0.545689
0.602807
0.648942
0.686244
0.716486
0.741057
0.761044
0.777275
0.790396
0.800909
0.809215
0.815629
0.820396
0.82372
0.825759
0.826645
0.826476
0.825337
0.823124
0.819903
0.815764
0.810797
0.805088
0.79872
0.791769
0.784305
0.776392
0.768088
0.75944
0.750487
0.741265
0.7318
0.722111
0.712206
0.702096
0.69178
0.68125
0.670495
0.659499
0.648239
0.636689
0.624816
0.612589
0.599958
0.586878
0.573294
0.559139
0.544349
0.52884
0.512526
0.495318
0.477118
0.457849
0.437429
0.415817
0.392999
0.369007
0.343921
0.317884
0.291103
0.263843
0.236427
0.209233
0.18267
0.157161
0.133115
0.110896
0.0907954
0.0730087
0.0576267
0.0446306
0.0339072
0.0252669
0.0184672
0.0132913
0.00945247
0.0066632
0.00467343
0.00327602
0.00230656
0.00163963
0.00118265
0.000869351
0.000653512
0.000503556
0.000398267
0.000323552
0.000270108
0.0002318
0.000204595
0.000185854
0.000173895
0.000167728
0.00016691
0.000171493
0.000182043
0.000199741
0.000226591
0.000265772
0.000322231
0.000403612
0.000521796
0.000695362
0.0009536
0.00134296
0.00193749
0.00285571
0.00428764
0.00653894
0.010104
0.0157949
0.0249821
0.040033
0.0649895
0.10653
0.17466
0.277084
0.40494
0.529066
0.440796
0.167813
0.0551756
0.0155318
0.00375552
0.000773033
0.000131576
1.72578e-05
1.62639e-06
9.22185e-08
2.46383e-09
1.95679e-11
1.91523e-08
3.68806e-05
0.00572425
0.0689964
0.201184
0.34767
0.474684
0.574147
0.649213
0.705657
0.748651
0.782041
0.808453
0.829651
0.846823
0.860799
0.872181
0.881419
0.888864
0.894791
0.899424
0.902938
0.90548
0.907164
0.908083
0.908308
0.907899
0.90678
0.90492
0.902356
0.89912
0.895236
0.890734
0.885633
0.879968
0.873762
0.867048
0.859859
0.852225
0.844179
0.835751
0.82697
0.817866
0.808459
0.79877
0.788821
0.77862
0.768178
0.7575
0.746587
0.735437
0.72404
0.712382
0.700447
0.688216
0.675655
0.662738
0.649421
0.635659
0.621401
0.606586
0.591153
0.575028
0.558145
0.54043
0.521814
0.502239
0.481654
0.460024
0.437345
0.41363
0.388941
0.363372
0.337071
0.310227
0.283086
0.255929
0.229071
0.202849
0.177599
0.15364
0.13126
0.110691
0.0921993
0.0759284
0.0618657
0.0499219
0.039947
0.0317487
0.0251111
0.01981
0.015628
0.0123639
0.00983883
0.00789971
0.00641921
0.00529428
0.00444358
0.0038043
0.00332893
0.00298239
0.00273959
0.00258347
0.00250358
0.00249535
0.00255973
0.00270355
0.00294058
0.00329347
0.00379676
0.00450187
0.00548425
0.00685414
0.00877227
0.0114727
0.0152952
0.0207325
0.0284952
0.0396053
0.0555249
0.0783211
0.110817
0.156545
0.219177
0.30099
0.399533
0.502494
0.580019
0.499606
0.231279
0.0890027
0.0296569
0.00848023
0.00203844
0.000402938
6.1353e-05
6.77921e-06
4.62757e-07
1.56384e-08
1.70088e-10
8.75228e-07
0.000448163
0.0268409
0.167548
0.353474
0.510714
0.624185
0.702423
0.756893
0.796311
0.826239
0.849922
0.869174
0.885027
0.898126
0.908928
0.917792
0.925006
0.930824
0.935456
0.939081
0.941848
0.94388
0.94528
0.946123
0.94647
0.94637
0.945792
0.944712
0.943148
0.941111
0.938606
0.935638
0.932206
0.92831
0.923956
0.919148
0.913889
0.908195
0.902075
0.895545
0.888623
0.881325
0.873675
0.865689
0.857391
0.848797
0.839925
0.830791
0.821411
0.811795
0.801948
0.791882
0.781594
0.771086
0.760354
0.749388
0.738173
0.726698
0.714935
0.702862
0.690439
0.677636
0.664406
0.650697
0.636457
0.621628
0.606142
0.58994
0.57295
0.555111
0.536369
0.516671
0.495988
0.474303
0.451627
0.428004
0.403507
0.378245
0.352367
0.326062
0.29955
0.273081
0.246969
0.221612
0.197306
0.174315
0.152865
0.133123
0.115201
0.0991486
0.0849594
0.0725762
0.0619008
0.0528057
0.0451431
0.0387576
0.0334932
0.0292017
0.0257473
0.0230107
0.0208903
0.0193042
0.0181896
0.0175038
0.0172233
0.0173459
0.0178917
0.0189071
0.0204694
0.0226952
0.0257508
0.0298675
0.0353613
0.0426573
0.0523219
0.0650983
0.0819456
0.104073
0.132954
0.17028
0.217765
0.276703
0.347129
0.426625
0.508663
0.580048
0.616634
0.545584
0.298268
0.131277
0.0494486
0.0158635
0.00425408
0.000937797
0.000159595
1.99146e-05
1.56776e-06
6.33398e-08
8.6756e-10
1.59521e-05
0.00306428
0.0819532
0.30493
0.50706
0.642837
0.727531
0.781528
0.81849
0.84618
0.868544
0.887348
0.903306
0.916759
0.92796
0.93716
0.944624
0.950605
0.955336
0.959028
0.961863
0.963992
0.965542
0.966609
0.967273
0.967589
0.967599
0.967292
0.966627
0.965615
0.964263
0.962573
0.960546
0.958176
0.955459
0.952388
0.948955
0.94516
0.940996
0.936466
0.931568
0.926312
0.920701
0.914748
0.908462
0.90186
0.894956
0.887765
0.880303
0.872588
0.864634
0.856456
0.848068
0.839481
0.830707
0.821754
0.812625
0.80332
0.793844
0.784191
0.774353
0.76432
0.754079
0.743609
0.73288
0.721871
0.710542
0.698852
0.68676
0.67421
0.661149
0.647512
0.633244
0.618273
0.602541
0.585982
0.568546
0.550183
0.530861
0.510569
0.489309
0.467111
0.444033
0.420141
0.395648
0.370742
0.345639
0.32058
0.29582
0.271615
0.248212
0.225842
0.204705
0.184965
0.166749
0.150138
0.135173
0.12186
0.110168
0.100045
0.0914185
0.0842106
0.0783406
0.0737342
0.070331
0.0680911
0.0670001
0.0670762
0.0683771
0.0710072
0.0751249
0.080956
0.0888016
0.0990533
0.112204
0.128854
0.149719
0.175609
0.207392
0.245902
0.29178
0.345198
0.405449
0.470402
0.535855
0.594677
0.635363
0.639524
0.572148
0.360855
0.177779
0.0741936
0.0261766
0.00767606
0.00184894
0.000344027
4.7283e-05
4.16153e-06
1.92937e-07
3.15068e-09
0.000160579
0.0136572
0.182949
0.456635
0.635321
0.734534
0.791115
0.827077
0.853364
0.875104
0.894306
0.911318
0.926007
0.938319
0.948364
0.956391
0.962686
0.967538
0.971215
0.973948
0.975938
0.977353
0.978328
0.978964
0.979339
0.979511
0.979512
0.979348
0.978934
0.978279
0.977385
0.976249
0.974869
0.973236
0.971342
0.969177
0.966734
0.964001
0.960972
0.957643
0.954006
0.95006
0.945806
0.941247
0.936387
0.931234
0.925799
0.92009
0.914126
0.907915
0.901475
0.894822
0.887969
0.880933
0.873725
0.866363
0.858856
0.851214
0.843443
0.835554
0.827552
0.819432
0.811198
0.802841
0.794355
0.78573
0.776946
0.767986
0.758828
0.749436
0.739779
0.729818
0.719511
0.708808
0.697652
0.685993
0.673765
0.660914
0.647377
0.633092
0.618006
0.602075
0.585258
0.567482
0.548774
0.529166
0.508714
0.487502
0.465645
0.443291
0.420615
0.397811
0.375093
0.352684
0.330813
0.309698
0.28955
0.270558
0.252886
0.236675
0.22204
0.209069
0.19783
0.188376
0.180748
0.174991
0.171154
0.169304
0.169535
0.171974
0.17679
0.184204
0.194488
0.207973
0.225038
0.2461
0.271587
0.301889
0.33729
0.377851
0.423268
0.472661
0.524329
0.575456
0.621744
0.656853
0.671429
0.651725
0.579395
0.412209
0.223771
0.102212
0.0392412
0.0124505
0.00324031
0.000650898
9.7043e-05
9.36271e-06
4.8526e-07
9.13661e-09
0.00106232
0.0438418
0.3229
0.593833
0.726012
0.790801
0.827733
0.853325
0.874497
0.894062
0.912518
0.929118
0.943197
0.954598
0.963523
0.970322
0.975364
0.978992
0.981505
0.983168
0.984198
0.984782
0.985066
0.985165
0.985158
0.985097
0.985012
0.984912
0.984673
0.984294
0.983771
0.983092
0.982246
0.98122
0.980001
0.978573
0.976926
0.975046
0.972924
0.970551
0.967919
0.965022
0.961859
0.958428
0.954733
0.950773
0.946556
0.94209
0.937388
0.932456
0.927311
0.921967
0.916437
0.910734
0.904878
0.898882
0.892757
0.886523
0.880188
0.873764
0.86726
0.860683
0.854041
0.847335
0.84057
0.833742
0.826844
0.819872
0.812814
0.805659
0.798385
0.790975
0.783398
0.775632
0.767641
0.759385
0.750826
0.741918
0.732618
0.722873
0.712627
0.701835
0.690443
0.678351
0.665528
0.651933
0.637538
0.622333
0.606326
0.589545
0.572042
0.553897
0.535218
0.516132
0.496801
0.4774
0.45813
0.439201
0.420831
0.403244
0.38666
0.371293
0.357348
0.345016
0.334481
0.325914
0.319482
0.315346
0.313672
0.314634
0.318409
0.325192
0.335188
0.348604
0.365635
0.386446
0.411138
0.439699
0.471933
0.50739
0.545255
0.584231
0.622394
0.657004
0.684226
0.698685
0.692795
0.656189
0.576874
0.442792
0.264894
0.131188
0.054407
0.0185544
0.00518269
0.0011157
0.000178843
1.86994e-05
1.06729e-06
2.27504e-08
0.00518179
0.10871
0.475358
0.696051
0.7816
0.823006
0.848996
0.869617
0.888888
0.908219
0.927015
0.943588
0.957034
0.967355
0.974978
0.980402
0.984072
0.986362
0.987598
0.988061
0.987999
0.987619
0.987093
0.986543
0.986058
0.98569
0.985463
0.985373
0.985269
0.985136
0.984956
0.984706
0.984367
0.983914
0.983324
0.982579
0.981656
0.980544
0.979227
0.977689
0.975928
0.973931
0.971695
0.969218
0.966498
0.963543
0.960351
0.95693
0.953287
0.949436
0.945385
0.941145
0.936734
0.932164
0.927449
0.922605
0.917648
0.912592
0.90745
0.902237
0.896964
0.891639
0.886276
0.88088
0.875455
0.870009
0.864541
0.859054
0.853539
0.847996
0.842418
0.836795
0.831108
0.825351
0.819497
0.81353
0.807426
0.801155
0.794691
0.787998
0.781041
0.773788
0.766194
0.758205
0.749743
0.740781
0.731273
0.721183
0.710482
0.699151
0.687175
0.674567
0.66135
0.647565
0.633283
0.618597
0.603619
0.588492
0.573377
0.558461
0.543942
0.530044
0.516985
0.505008
0.494344
0.48523
0.477898
0.472571
0.469469
0.468792
0.470736
0.475469
0.48314
0.49386
0.507688
0.52461
0.544515
0.567153
0.592094
0.618678
0.645942
0.672555
0.696693
0.715896
0.726797
0.724769
0.70351
0.655066
0.571529
0.450388
0.298138
0.158694
0.0706603
0.0257798
0.00769534
0.00176796
0.000303237
3.4159e-05
2.1312e-06
5.10063e-08
0.0203287
0.218457
0.606146
0.759136
0.8129
0.84172
0.86234
0.880825
0.899758
0.919769
0.93932
0.955797
0.968324
0.977309
0.983467
0.98742
0.989634
0.990483
0.990305
0.989409
0.988082
0.986572
0.985078
0.98375
0.982686
0.981941
0.981528
0.981424
0.981439
0.98155
0.981723
0.98192
0.982105
0.982245
0.982303
0.982248
0.982053
0.981695
0.981154
0.980417
0.979468
0.978303
0.976912
0.975293
0.973445
0.97137
0.969071
0.966556
0.963831
0.960905
0.95779
0.954496
0.951038
0.94743
0.943683
0.939816
0.93584
0.931774
0.927628
0.923419
0.91916
0.914862
0.910533
0.906187
0.90183
0.897468
0.893109
0.888753
0.884401
0.880058
0.875717
0.871375
0.867029
0.862666
0.858284
0.853867
0.849404
0.844879
0.840274
0.835573
0.83075
0.825791
0.820665
0.815348
0.80976
0.803891
0.797707
0.791173
0.784261
0.776936
0.769184
0.760978
0.752319
0.743202
0.733648
0.723689
0.713373
0.702769
0.691975
0.681098
0.67028
0.659671
0.649453
0.639815
0.630967
0.623121
0.616499
0.611317
0.607789
0.606109
0.60646
0.608983
0.613792
0.62094
0.63042
0.642137
0.655899
0.671375
0.68808
0.705333
0.722206
0.737463
0.749447
0.755933
0.753895
0.739226
0.706579
0.649754
0.563576
0.448099
0.314302
0.18274
0.0868482
0.0337707
0.0107408
0.00262775
0.000481216
5.82731e-05
3.96435e-06
1.06291e-07
0.0636688
0.36896
0.690409
0.792931
0.830927
0.853557
0.871488
0.88915
0.90848
0.929626
0.950064
0.966156
0.977423
0.984874
0.989507
0.991958
0.992645
0.991914
0.990123
0.987637
0.984804
0.981934
0.979277
0.977013
0.975257
0.974063
0.973434
0.973297
0.973444
0.97383
0.974403
0.975106
0.975882
0.976679
0.977447
0.978142
0.978724
0.979162
0.979429
0.979506
0.979378
0.979031
0.978458
0.977656
0.976628
0.975373
0.973894
0.972198
0.970294
0.968192
0.965899
0.963432
0.960803
0.958023
0.955111
0.952081
0.948942
0.945715
0.942412
0.939044
0.93563
0.932179
0.928703
0.925212
0.921715
0.918221
0.914735
0.911265
0.90781
0.904376
0.90096
0.897568
0.894193
0.890835
0.887487
0.884145
0.880804
0.877451
0.874084
0.870684
0.867247
0.863758
0.860201
0.856566
0.852794
0.848881
0.844804
0.840539
0.836064
0.831361
0.826405
0.821179
0.815668
0.809865
0.803764
0.797371
0.7907
0.783784
0.776664
0.769397
0.762063
0.754751
0.747576
0.740668
0.734167
0.728231
0.723026
0.718718
0.715478
0.713459
0.712802
0.713619
0.715987
0.719931
0.725415
0.732325
0.740454
0.749479
0.758943
0.768214
0.776448
0.782508
0.78487
0.781463
0.769484
0.745205
0.704035
0.641127
0.553223
0.441909
0.317143
0.197353
0.10192
0.0420977
0.014234
0.00370471
0.000724048
9.42672e-05
6.99671e-06
2.10426e-07
0.134308
0.50462
0.74585
0.812213
0.842354
0.861644
0.87809
0.895543
0.915648
0.93819
0.959516
0.97485
0.984562
0.990411
0.993549
0.994491
0.993533
0.990998
0.987293
0.982883
0.978217
0.973693
0.969629
0.966249
0.963678
0.961974
0.961119
0.960956
0.961275
0.962004
0.963065
0.964376
0.965853
0.96742
0.969008
0.970555
0.972007
0.973324
0.974473
0.975422
0.976155
0.976659
0.976923
0.976944
0.976722
0.976262
0.975567
0.974645
0.973506
0.972161
0.970621
0.9689
0.967014
0.964972
0.962793
0.960489
0.958079
0.955576
0.95299
0.950343
0.947643
0.944904
0.942137
0.939354
0.936563
0.933772
0.930991
0.928221
0.925474
0.922746
0.920046
0.917372
0.914723
0.912102
0.909503
0.906931
0.904374
0.901834
0.899304
0.896777
0.894249
0.891718
0.889166
0.886594
0.883966
0.881271
0.878498
0.875637
0.872674
0.869589
0.866376
0.863016
0.859497
0.855812
0.851948
0.84791
0.843695
0.839311
0.834775
0.830118
0.825373
0.820589
0.815827
0.811166
0.806685
0.802489
0.798676
0.795361
0.792652
0.790656
0.789465
0.78915
0.789754
0.79128
0.793679
0.796834
0.800552
0.804537
0.808374
0.811491
0.813106
0.812156
0.807187
0.796221
0.776599
0.744914
0.697207
0.629734
0.540659
0.432565
0.314656
0.202151
0.111035
0.0503411
0.0180613
0.00500002
0.00104356
0.000146308
1.18756e-05
4.01899e-07
0.230293
0.604229
0.779187
0.827411
0.850742
0.867324
0.882898
0.900455
0.921545
0.945637
0.967818
0.981992
0.989959
0.994271
0.996009
0.995397
0.992571
0.987868
0.981816
0.975035
0.968125
0.961603
0.955863
0.951174
0.94768
0.945423
0.944363
0.944208
0.944773
0.945957
0.947641
0.949708
0.952043
0.954538
0.957098
0.959643
0.962103
0.964421
0.966552
0.968465
0.970133
0.971546
0.972692
0.973565
0.974171
0.974511
0.974593
0.974428
0.974028
0.973404
0.972571
0.971544
0.970338
0.968968
0.96745
0.9658
0.964034
0.962167
0.960214
0.958187
0.956103
0.953972
0.951806
0.949617
0.947416
0.945207
0.943001
0.940804
0.93862
0.936456
0.934314
0.932195
0.930102
0.928036
0.925997
0.923983
0.921996
0.920028
0.918082
0.916154
0.914243
0.912343
0.910449
0.908561
0.906653
0.904724
0.90276
0.90076
0.898715
0.896613
0.89445
0.892216
0.889902
0.887499
0.885004
0.882411
0.879715
0.876919
0.874027
0.871046
0.867995
0.864895
0.861777
0.858675
0.855634
0.852707
0.849951
0.847429
0.845202
0.843326
0.841852
0.840815
0.840225
0.840062
0.840262
0.840715
0.841234
0.841548
0.841266
0.839853
0.836562
0.830358
0.819816
0.803005
0.777383
0.739823
0.686943
0.615927
0.526046
0.420597
0.308216
0.20193
0.114983
0.0551319
0.0214738
0.00650988
0.00145282
0.000219878
1.95827e-05
7.48842e-07
0.342775
0.673253
0.801065
0.838234
0.857548
0.871676
0.886317
0.904123
0.926294
0.952044
0.975044
0.987684
0.993853
0.99681
0.997245
0.994931
0.989857
0.982464
0.973498
0.963805
0.954181
0.945281
0.937591
0.931419
0.926916
0.924106
0.922904
0.922828
0.923761
0.925555
0.928044
0.931065
0.934459
0.938082
0.941808
0.94553
0.949158
0.952622
0.955868
0.958855
0.961559
0.963958
0.966048
0.967824
0.969291
0.970454
0.971328
0.971922
0.97225
0.972331
0.97218
0.971817
0.971251
0.970508
0.969602
0.968549
0.967368
0.966072
0.964681
0.963203
0.961659
0.960056
0.95841
0.95673
0.955025
0.953308
0.951581
0.949855
0.948135
0.946425
0.944728
0.94305
0.941391
0.939751
0.938136
0.93654
0.934968
0.933418
0.931889
0.930381
0.92889
0.927415
0.925959
0.924515
0.923072
0.921622
0.920164
0.918692
0.917204
0.915692
0.914154
0.912586
0.910979
0.909328
0.907634
0.905887
0.904082
0.902223
0.900303
0.898324
0.896295
0.894219
0.892105
0.889973
0.887836
0.885718
0.883642
0.881638
0.879727
0.877935
0.876276
0.874751
0.873345
0.872021
0.8707
0.869262
0.867522
0.86522
0.861975
0.857257
0.850319
0.840127
0.825249
0.803775
0.773274
0.730891
0.673778
0.599932
0.509534
0.406407
0.298753
0.198001
0.115351
0.0573739
0.0235461
0.00764572
0.00185822
0.000311497
3.13138e-05
1.3724e-06
0.436665
0.741178
0.816271
0.845969
0.862376
0.875327
0.888765
0.906676
0.929955
0.957434
0.981262
0.992049
0.996504
0.99837
0.997539
0.99322
0.985338
0.974574
0.962012
0.948799
0.935961
0.924308
0.914416
0.906628
0.901085
0.897773
0.89655
0.896673
0.898146
0.900757
0.904281
0.908495
0.913187
0.918169
0.923277
0.928376
0.933352
0.938122
0.942625
0.946808
0.950647
0.954123
0.957229
0.959964
0.962337
0.964358
0.966042
0.967407
0.968469
0.96925
0.969768
0.970045
0.970099
0.969951
0.96962
0.969123
0.968482
0.967711
0.966827
0.965846
0.964779
0.963645
0.962453
0.961217
0.959942
0.958642
0.957322
0.955992
0.954654
0.953317
0.951984
0.950657
0.949339
0.948036
0.946746
0.945468
0.94421
0.942963
0.941737
0.940522
0.939327
0.938144
0.936979
0.935827
0.934685
0.933539
0.932392
0.931244
0.930087
0.928925
0.92775
0.926563
0.925359
0.924137
0.922889
0.921615
0.920308
0.918968
0.917591
0.916172
0.91471
0.913206
0.911656
0.910064
0.908433
0.906765
0.905064
0.903334
0.901576
0.899786
0.897956
0.896061
0.894071
0.891924
0.889531
0.886761
0.883423
0.879243
0.873836
0.866654
0.85693
0.843594
0.825196
0.799844
0.765208
0.71872
0.658047
0.581911
0.491255
0.390317
0.286939
0.191309
0.113017
0.0575666
0.0244688
0.00833039
0.00215006
0.000387893
4.25817e-05
2.07391e-06
0.504361
0.766382
0.827178
0.851379
0.865552
0.877616
0.89097
0.908193
0.932545
0.961799
0.986518
0.995232
0.998189
0.99925
0.997081
0.990265
0.978829
0.96388
0.94696
0.929589
0.913044
0.898298
0.886002
0.87652
0.869969
0.866277
0.865217
0.865729
0.867977
0.871673
0.876513
0.882199
0.888456
0.895048
0.901768
0.908449
0.914958
0.921196
0.927088
0.932584
0.937657
0.942289
0.946477
0.950225
0.953545
0.956454
0.958973
0.961118
0.96292
0.964399
0.965579
0.966485
0.967138
0.967563
0.96778
0.96781
0.967673
0.967388
0.966973
0.966442
0.965812
0.965097
0.964309
0.963461
0.962563
0.961624
0.960652
0.959656
0.958642
0.957613
0.956577
0.955538
0.954496
0.953455
0.952418
0.951387
0.95036
0.949342
0.94833
0.947328
0.946336
0.945355
0.944383
0.943421
0.942468
0.941511
0.940553
0.939595
0.93863
0.937665
0.936692
0.935713
0.934725
0.933728
0.932714
0.931684
0.930632
0.929556
0.928452
0.927311
0.926133
0.92491
0.923635
0.922305
0.920912
0.919448
0.917905
0.91627
0.914531
0.912667
0.910652
0.90845
0.906007
0.903248
0.900069
0.896329
0.891818
0.886247
0.879202
0.870103
0.85814
0.842196
0.820794
0.792053
0.753775
0.70369
0.639959
0.561974
0.471334
0.372597
0.273282
0.182557
0.108679
0.0561841
0.0244393
0.0085928
0.00231275
0.000439602
5.14148e-05
2.70311e-06
0.556904
0.785171
0.835924
0.854911
0.867244
0.878605
0.89209
0.909445
0.93407
0.965111
0.990865
0.99741
0.999168
0.999698
0.995969
0.985964
0.970058
0.95001
0.927942
0.90579
0.885094
0.866969
0.852133
0.840956
0.833514
0.829645
0.828536
0.829725
0.833109
0.838281
0.844829
0.852361
0.860528
0.869031
0.877621
0.886104
0.894327
0.902181
0.909589
0.9165
0.922887
0.92874
0.93406
0.938859
0.943155
0.946972
0.950335
0.953274
0.955814
0.957987
0.959821
0.961342
0.962578
0.963554
0.964296
0.964825
0.965164
0.965333
0.965352
0.965236
0.965002
0.964667
0.964243
0.96374
0.963173
0.962552
0.961881
0.961172
0.960432
0.959664
0.958874
0.958066
0.957246
0.956415
0.955575
0.954731
0.953882
0.953029
0.952175
0.951323
0.950468
0.949617
0.948769
0.947926
0.947084
0.946237
0.945386
0.944527
0.943665
0.942797
0.941923
0.941042
0.940151
0.939252
0.93834
0.937413
0.936465
0.935496
0.934499
0.933468
0.932398
0.931276
0.930099
0.928855
0.927528
0.92611
0.924582
0.922926
0.921117
0.919123
0.916909
0.914426
0.911607
0.908366
0.904589
0.900106
0.894694
0.888033
0.879674
0.868987
0.855108
0.836865
0.812752
0.780925
0.739331
0.686015
0.619637
0.540208
0.449888
0.353483
0.258191
0.172291
0.102889
0.0536375
0.0236724
0.00850247
0.00235493
0.00046423
5.67873e-05
3.15292e-06
0.598231
0.798495
0.840924
0.85683
0.86755
0.878277
0.891988
0.910362
0.934715
0.967343
0.99435
0.998776
0.999676
0.999898
0.994218
0.98014
0.958716
0.932601
0.904612
0.877114
0.851891
0.830178
0.812746
0.799958
0.791829
0.788084
0.787132
0.789357
0.794262
0.8013
0.809932
0.81966
0.830047
0.840729
0.851416
0.861884
0.871969
0.881553
0.890562
0.898954
0.906703
0.91381
0.920285
0.926149
0.931428
0.936153
0.940359
0.944079
0.947349
0.950201
0.95267
0.954789
0.956588
0.958094
0.959336
0.96034
0.961125
0.961719
0.96214
0.962406
0.962539
0.962546
0.962449
0.962259
0.961985
0.96164
0.961233
0.96077
0.960262
0.959711
0.959127
0.958509
0.957867
0.957199
0.956514
0.95581
0.95509
0.954357
0.953613
0.952859
0.952095
0.951325
0.950549
0.949767
0.948982
0.948188
0.947382
0.946566
0.945741
0.944904
0.944058
0.9432
0.942333
0.941452
0.940557
0.939644
0.938709
0.937751
0.936761
0.935735
0.934663
0.933538
0.932348
0.931081
0.929723
0.928253
0.926657
0.924905
0.92297
0.920815
0.918393
0.915649
0.912506
0.908868
0.904599
0.899516
0.893366
0.885792
0.8763
0.864202
0.848568
0.828175
0.801495
0.766746
0.722052
0.665801
0.597146
0.516674
0.427028
0.33318
0.241998
0.160939
0.0960811
0.0502692
0.022368
0.00814137
0.00229771
0.000464261
5.85756e-05
3.37809e-06
0.630809
0.807842
0.843598
0.85727
0.86648
0.876582
0.89054
0.909997
0.935304
0.968458
0.997002
0.999534
0.999902
0.999974
0.991787
0.972572
0.94449
0.911348
0.876732
0.843424
0.813393
0.787961
0.767945
0.753709
0.745195
0.741974
0.741854
0.745578
0.75247
0.761807
0.772906
0.78515
0.798012
0.811071
0.824
0.83656
0.848574
0.859935
0.870566
0.880442
0.889549
0.897897
0.905508
0.912413
0.91865
0.92426
0.92928
0.933754
0.937724
0.941231
0.944308
0.946995
0.949326
0.951333
0.953046
0.95449
0.955698
0.956684
0.957478
0.958095
0.958558
0.958877
0.959074
0.959159
0.959146
0.959043
0.958863
0.958611
0.958299
0.957931
0.957513
0.957049
0.956548
0.956007
0.955436
0.954836
0.954208
0.953554
0.952879
0.952183
0.951471
0.950738
0.949992
0.949235
0.948463
0.947679
0.946874
0.946055
0.945218
0.944366
0.943499
0.942617
0.941717
0.940804
0.93987
0.938915
0.937935
0.936926
0.935883
0.934796
0.933661
0.932469
0.931202
0.929853
0.928403
0.926832
0.925117
0.923234
0.921146
0.918813
0.916187
0.913201
0.909771
0.905785
0.901097
0.895495
0.888694
0.880296
0.869744
0.85629
0.83894
0.816425
0.787221
0.749629
0.702
0.64308
0.572515
0.491427
0.402866
0.311884
0.224985
0.148847
0.088604
0.0463572
0.0206982
0.00758862
0.00216629
0.000444668
5.72589e-05
3.38712e-06
0.656404
0.814231
0.844565
0.856133
0.86402
0.873435
0.887642
0.90831
0.93558
0.968671
0.998838
0.999879
0.999979
0.999995
0.988596
0.963034
0.927105
0.886042
0.844227
0.804776
0.769757
0.740534
0.71799
0.702541
0.694065
0.691429
0.692773
0.698747
0.708378
0.720688
0.734793
0.749947
0.76555
0.781145
0.796393
0.811059
0.824982
0.838067
0.850261
0.86155
0.871939
0.881453
0.890129
0.898007
0.905135
0.911567
0.917346
0.922522
0.92714
0.93125
0.934893
0.93811
0.940932
0.943404
0.94555
0.947403
0.948991
0.95034
0.95147
0.952405
0.953162
0.953762
0.954219
0.954547
0.954758
0.954866
0.954877
0.954804
0.954655
0.954434
0.954149
0.953806
0.953412
0.952966
0.952475
0.951944
0.951372
0.950764
0.950124
0.949453
0.948755
0.94803
0.947279
0.946507
0.945715
0.944905
0.944067
0.943207
0.942324
0.941422
0.940499
0.939554
0.938591
0.937605
0.936596
0.935562
0.934499
0.933402
0.932267
0.931087
0.929853
0.928555
0.927182
0.925719
0.924146
0.922446
0.920596
0.918565
0.916319
0.91381
0.910989
0.907779
0.90409
0.899796
0.894726
0.888639
0.881216
0.872
0.860378
0.845534
0.826413
0.80172
0.769959
0.729565
0.67914
0.617821
0.545748
0.464519
0.37751
0.28977
0.207397
0.1363
0.0807342
0.0421233
0.0188045
0.00691309
0.00198494
0.000411138
5.35986e-05
3.22115e-06
0.676289
0.818225
0.84388
0.853216
0.860126
0.868739
0.88315
0.905123
0.934541
0.968866
0.999841
0.999989
1
1
0.984548
0.951305
0.906355
0.85661
0.807207
0.761452
0.721368
0.688301
0.66327
0.646897
0.639031
0.636007
0.63988
0.649311
0.66283
0.679064
0.696879
0.715398
0.733988
0.752204
0.769748
0.786427
0.80212
0.816777
0.830368
0.842911
0.85443
0.86497
0.874577
0.883308
0.891217
0.898369
0.904815
0.91061
0.915806
0.920451
0.924595
0.928278
0.931542
0.934423
0.936955
0.939171
0.941098
0.942765
0.944194
0.945409
0.946427
0.947269
0.94795
0.948486
0.948888
0.949169
0.949341
0.949413
0.949393
0.949286
0.949104
0.948848
0.948527
0.948143
0.947699
0.947205
0.94666
0.946067
0.945428
0.944753
0.944037
0.943284
0.9425
0.941688
0.940844
0.939976
0.939077
0.938147
0.937189
0.936208
0.935199
0.934167
0.933112
0.932028
0.930921
0.929783
0.928614
0.927409
0.926164
0.92487
0.923519
0.922102
0.920606
0.919015
0.917313
0.915483
0.913495
0.911321
0.908922
0.906253
0.903251
0.89984
0.895911
0.891323
0.885877
0.879304
0.871229
0.86114
0.848359
0.832009
0.810986
0.783992
0.749602
0.706426
0.653361
0.58996
0.516832
0.435999
0.351071
0.267012
0.189446
0.123529
0.0726918
0.037742
0.0167991
0.00617107
0.00177459
0.000368987
4.84019e-05
2.93363e-06
0.691387
0.820307
0.841921
0.849125
0.854737
0.862365
0.876904
0.900285
0.932163
0.969045
1
0.999999
0.999998
0.999999
0.979552
0.937198
0.882116
0.823143
0.766028
0.714029
0.668899
0.631865
0.604234
0.587239
0.58073
0.579843
0.587282
0.601102
0.619251
0.639921
0.661722
0.683684
0.705181
0.72583
0.745417
0.763819
0.780991
0.796924
0.811638
0.825175
0.837588
0.848936
0.859281
0.868691
0.877228
0.884961
0.891947
0.898245
0.903914
0.909007
0.913564
0.91764
0.921272
0.9245
0.927356
0.929879
0.932094
0.93403
0.935712
0.937161
0.938397
0.939438
0.940305
0.94101
0.941565
0.941987
0.942281
0.942462
0.942536
0.942511
0.942394
0.942191
0.941912
0.941556
0.941131
0.94064
0.940086
0.939478
0.938813
0.938099
0.937336
0.936532
0.935684
0.934799
0.933879
0.932927
0.931937
0.930914
0.929859
0.928776
0.927663
0.926521
0.925354
0.924159
0.922935
0.921682
0.920395
0.919073
0.917708
0.916293
0.914824
0.913284
0.911667
0.909959
0.908135
0.906181
0.904071
0.901766
0.899236
0.896422
0.893259
0.889659
0.885497
0.880609
0.874763
0.867647
0.85883
0.847743
0.833643
0.815594
0.792473
0.763015
0.725908
0.679989
0.624492
0.559391
0.485742
0.405922
0.323671
0.243771
0.171324
0.110732
0.0646527
0.0333482
0.0147681
0.00540625
0.00155189
0.000322647
4.23851e-05
2.57632e-06
0.70237
0.820813
0.838823
0.843739
0.847757
0.854187
0.86872
0.893598
0.928283
0.968456
1
1
0.999998
0.999997
0.973537
0.920546
0.854366
0.785937
0.72135
0.663465
0.613408
0.57209
0.541299
0.523904
0.516272
0.52011
0.534574
0.555763
0.580422
0.606354
0.632234
0.657327
0.681228
0.703748
0.724813
0.74441
0.762567
0.779336
0.794775
0.808952
0.821942
0.833815
0.844647
0.854508
0.863476
0.87161
0.878976
0.885641
0.891654
0.897073
0.901945
0.906317
0.91023
0.913725
0.916838
0.919595
0.922035
0.92418
0.926058
0.927687
0.92909
0.930286
0.931291
0.932121
0.93279
0.933308
0.933685
0.933935
0.934067
0.934084
0.934001
0.933816
0.93354
0.933178
0.932736
0.932216
0.931624
0.930966
0.930244
0.929462
0.928624
0.927733
0.926795
0.925812
0.924789
0.92373
0.922628
0.92149
0.920318
0.919113
0.91788
0.916617
0.915327
0.914009
0.912664
0.911289
0.909885
0.908443
0.906961
0.905434
0.903852
0.902206
0.900481
0.898667
0.896742
0.894688
0.892474
0.890067
0.887425
0.884486
0.881176
0.877386
0.872975
0.867746
0.861427
0.853654
0.843937
0.831647
0.815984
0.795977
0.770513
0.738408
0.698517
0.649948
0.592309
0.525997
0.452462
0.374351
0.295435
0.22021
0.153205
0.0980733
0.0567565
0.0290453
0.0127759
0.00465108
0.00132935
0.000275506
3.61137e-05
2.19198e-06
0.709679
0.819977
0.834602
0.836681
0.838362
0.844074
0.858399
0.884832
0.922702
0.966948
0.999997
0.999997
0.999998
0.999996
0.966432
0.9012
0.823179
0.745538
0.674243
0.611293
0.556642
0.510434
0.474795
0.456399
0.44949
0.463406
0.489876
0.521084
0.552744
0.583211
0.611993
0.638966
0.664118
0.687489
0.70915
0.72918
0.747667
0.7647
0.780364
0.794744
0.807926
0.819993
0.831013
0.841065
0.85022
0.858551
0.866115
0.872971
0.879178
0.884788
0.889848
0.894404
0.898497
0.902165
0.905442
0.90836
0.910948
0.913232
0.915239
0.916989
0.918501
0.919793
0.920886
0.92179
0.922517
0.923087
0.923503
0.923778
0.923923
0.923941
0.923845
0.92364
0.92333
0.922924
0.922427
0.921845
0.921177
0.920435
0.919622
0.91874
0.917797
0.916792
0.915736
0.914631
0.913481
0.912291
0.911058
0.909788
0.908484
0.907147
0.905781
0.90439
0.902973
0.901533
0.900069
0.89858
0.897062
0.895515
0.893933
0.892308
0.890635
0.888902
0.887097
0.885207
0.883208
0.881083
0.878796
0.876311
0.873577
0.870524
0.86706
0.863055
0.858338
0.852671
0.845735
0.837109
0.826244
0.812455
0.7949
0.772617
0.744539
0.709614
0.666928
0.615908
0.556545
0.489641
0.416978
0.341373
0.266505
0.196496
0.135252
0.0856943
0.0491146
0.0249109
0.0108692
0.00392864