/*--------------------------------*- C++ -*----------------------------------*\
  =========                 |
  \\      /  F ield         | OpenFOAM: The Open Source CFD Toolbox
   \\    /   O peration     | Website:  https://openfoam.org
    \\  /    A nd           | Version:  12
     \\/     M anipulation  |
\*---------------------------------------------------------------------------*/
FoamFile
{
    format      ascii;
    class       volScalarField;
    location    "595";
    object      T;
}
// * * * * * * * * * * * * * * * * * * * * * * * * * * * * * * * * * * * * * //

dimensions      [];

internalField   nonuniform List<scalar> 
4480
(
2.75768e-05
0.0010347
0.0531546
0.20373
0.363281
0.496328
0.59936
0.677279
0.735964
0.780345
0.814167
0.840172
0.860341
0.876113
0.888531
0.898356
0.906153
0.912342
0.917237
0.921074
0.924041
0.926277
0.927892
0.928968
0.929572
0.929758
0.929568
0.929177
0.928781
0.928378
0.927968
0.927549
0.927115
0.926667
0.926201
0.925718
0.925212
0.924684
0.924126
0.923542
0.92293
0.922281
0.921593
0.920869
0.920102
0.919287
0.918421
0.917508
0.916534
0.915496
0.914398
0.913237
0.911997
0.910682
0.909286
0.907801
0.906231
0.904571
0.902807
0.900946
0.898973
0.896892
0.894692
0.892376
0.889928
0.887361
0.884651
0.881814
0.878824
0.8757
0.872418
0.868985
0.865392
0.861638
0.857715
0.853621
0.849352
0.844902
0.840267
0.835443
0.830424
0.825206
0.819786
0.814193
0.808434
0.802506
0.796412
0.790154
0.783732
0.777153
0.770422
0.763548
0.756542
0.749416
0.742192
0.734884
0.727521
0.72013
0.712749
0.705421
0.698193
0.691121
0.68426
0.677701
0.671511
0.665786
0.660634
0.656168
0.652507
0.64979
0.648158
0.647757
0.648732
0.651238
0.655402
0.661356
0.669187
0.678955
0.690678
0.70437
0.7202
0.738736
0.760964
0.789313
0.833419
0.897492
0.941947
0.974953
0.967619
0.918969
0.870777
0.795823
0.725996
0.667144
0.61026
0.552296
0.490974
0.423353
0.346089
0.249731
1.13166e-05
0.019862
0.201696
0.439042
0.622388
0.745538
0.825125
0.876448
0.90997
0.932296
0.947495
0.958078
0.965615
0.971095
0.975145
0.978191
0.980507
0.98228
0.983643
0.984689
0.985488
0.98608
0.986507
0.98679
0.986954
0.98701
0.98697
0.986752
0.986279
0.985577
0.984673
0.983592
0.982359
0.980997
0.979523
0.977961
0.976327
0.974637
0.972901
0.971134
0.969347
0.967547
0.965736
0.963926
0.96212
0.960317
0.958524
0.956737
0.954958
0.953185
0.951418
0.949659
0.9479
0.946139
0.944377
0.942605
0.940829
0.939037
0.937229
0.935407
0.933555
0.931685
0.92978
0.927845
0.925876
0.923875
0.921829
0.919737
0.917605
0.91543
0.913202
0.910925
0.908596
0.906217
0.903776
0.901283
0.898732
0.896115
0.89345
0.890721
0.887927
0.885082
0.882169
0.879208
0.876208
0.873159
0.870068
0.866946
0.863788
0.860608
0.85741
0.854202
0.850994
0.847801
0.84464
0.841519
0.838471
0.835506
0.832654
0.829949
0.827426
0.825117
0.82307
0.821321
0.819937
0.818956
0.818451
0.818469
0.819087
0.820363
0.822367
0.825149
0.828776
0.833293
0.838734
0.845128
0.852479
0.860787
0.870035
0.880223
0.891392
0.903657
0.917154
0.931981
0.947988
0.963839
0.976905
0.985354
0.977275
0.950307
0.922384
0.890905
0.856129
0.817994
0.775536
0.727473
0.672072
0.607169
0.530518
0.441277
0.00167422
0.104091
0.398603
0.643193
0.793056
0.877245
0.923948
0.950315
0.96568
0.974994
0.98088
0.984774
0.987457
0.989378
0.990794
0.991866
0.99269
0.993328
0.993826
0.994213
0.994511
0.994733
0.994895
0.995004
0.995067
0.99509
0.995075
0.995011
0.994872
0.994654
0.994359
0.993978
0.99351
0.992946
0.992291
0.991537
0.99069
0.989751
0.988726
0.987617
0.986434
0.985181
0.983867
0.982498
0.981081
0.979627
0.978137
0.976621
0.975082
0.973527
0.971962
0.970388
0.968807
0.967223
0.965642
0.964057
0.962478
0.9609
0.959323
0.95775
0.956179
0.954612
0.953043
0.951479
0.949913
0.948346
0.946779
0.945209
0.943632
0.942057
0.940467
0.938877
0.937278
0.935672
0.934051
0.932425
0.930791
0.929141
0.927482
0.925818
0.924136
0.922449
0.920744
0.91904
0.917321
0.915603
0.913889
0.912176
0.910464
0.908769
0.907087
0.905429
0.903806
0.902217
0.900679
0.899207
0.897809
0.8965
0.895303
0.894237
0.893318
0.892571
0.89203
0.89171
0.891653
0.891889
0.89244
0.893349
0.894653
0.896373
0.898544
0.901189
0.904333
0.907987
0.912158
0.916836
0.922013
0.92766
0.933743
0.940226
0.947065
0.954196
0.961514
0.968815
0.97577
0.981867
0.986412
0.988515
0.982678
0.965231
0.947244
0.927485
0.904942
0.878529
0.846891
0.808231
0.760137
0.699479
0.622628
0.526312
0.0174083
0.270849
0.599786
0.798591
0.897174
0.944001
0.966655
0.978143
0.984362
0.988008
0.990333
0.991941
0.993133
0.994051
0.994777
0.995358
0.995827
0.996202
0.996502
0.996738
0.996921
0.997059
0.997158
0.997229
0.997271
0.997288
0.997284
0.997256
0.997199
0.997112
0.996993
0.996838
0.996645
0.996408
0.99612
0.995779
0.99538
0.994917
0.99439
0.993795
0.993133
0.992403
0.991607
0.990749
0.98983
0.988857
0.987831
0.98676
0.985647
0.9845
0.983323
0.982118
0.980895
0.979653
0.978402
0.977144
0.975881
0.974613
0.97335
0.972088
0.970834
0.969583
0.968343
0.967114
0.965892
0.964681
0.963485
0.962295
0.961121
0.959953
0.958796
0.957652
0.956516
0.955391
0.954272
0.953161
0.95206
0.95097
0.949885
0.948804
0.947733
0.946671
0.945622
0.94457
0.943529
0.942498
0.941477
0.940473
0.939487
0.938517
0.93757
0.936652
0.935769
0.934922
0.934127
0.933382
0.932707
0.932102
0.931583
0.931164
0.930861
0.930682
0.93065
0.930777
0.93109
0.931593
0.93232
0.933279
0.934492
0.935973
0.937739
0.939796
0.942153
0.944813
0.947763
0.950992
0.954483
0.958205
0.96212
0.966181
0.97033
0.97448
0.97852
0.982292
0.985589
0.988136
0.98957
0.989363
0.98519
0.973045
0.960029
0.945857
0.929694
0.910464
0.886654
0.856013
0.815199
0.759201
0.680815
0.57024
0.0729869
0.474932
0.767003
0.899035
0.952257
0.973938
0.9834
0.987985
0.990527
0.992177
0.993387
0.994357
0.995162
0.995835
0.996394
0.99685
0.997221
0.997516
0.997746
0.997921
0.998053
0.998149
0.998217
0.99826
0.998287
0.998299
0.998299
0.998283
0.998252
0.998204
0.998137
0.998052
0.997949
0.997822
0.997671
0.997493
0.997281
0.997035
0.996749
0.996422
0.996047
0.995628
0.995156
0.994636
0.994065
0.993444
0.992778
0.992064
0.991308
0.990513
0.989682
0.988819
0.987928
0.987014
0.986082
0.985136
0.98418
0.983212
0.982244
0.981274
0.980306
0.979342
0.978388
0.977443
0.976504
0.975583
0.974672
0.973773
0.972891
0.972023
0.97117
0.970329
0.969507
0.968698
0.967906
0.967126
0.966364
0.965613
0.964872
0.964149
0.963437
0.962737
0.962053
0.961379
0.960717
0.960069
0.959433
0.95881
0.958207
0.957623
0.957062
0.956524
0.956018
0.955544
0.955107
0.954712
0.954369
0.954084
0.953862
0.953716
0.953649
0.953673
0.953802
0.954044
0.954409
0.954912
0.95556
0.956364
0.957334
0.958483
0.959806
0.961317
0.963008
0.964881
0.966926
0.969122
0.971456
0.973899
0.976418
0.978966
0.981488
0.983918
0.986167
0.98812
0.989633
0.990524
0.99054
0.989311
0.986002
0.977342
0.967088
0.955958
0.943404
0.928623
0.910309
0.886222
0.852564
0.802612
0.724559
0.597615
0.181336
0.664785
0.880578
0.952926
0.976858
0.985615
0.989395
0.991404
0.992741
0.993806
0.994741
0.995571
0.996291
0.996904
0.997403
0.997802
0.998111
0.998341
0.998512
0.998628
0.998705
0.998753
0.998781
0.998793
0.998796
0.998794
0.998789
0.998782
0.998762
0.998733
0.998694
0.998643
0.998581
0.998507
0.998418
0.998312
0.998189
0.998044
0.997875
0.997683
0.997461
0.997208
0.99692
0.996599
0.996242
0.995846
0.995413
0.994942
0.994437
0.993895
0.993322
0.992718
0.992088
0.991433
0.990756
0.990064
0.989358
0.988641
0.987914
0.987184
0.986457
0.985727
0.985004
0.984285
0.983574
0.982876
0.982185
0.981509
0.98085
0.9802
0.979565
0.978945
0.978342
0.977754
0.977179
0.976621
0.976073
0.975544
0.97503
0.974525
0.974034
0.97356
0.973099
0.972652
0.972211
0.971783
0.971371
0.970971
0.970585
0.970215
0.969866
0.969537
0.969231
0.968949
0.968697
0.968479
0.9683
0.968165
0.968075
0.968036
0.968059
0.968144
0.968304
0.968545
0.968868
0.969287
0.969801
0.970425
0.971158
0.972004
0.97297
0.974049
0.975242
0.976544
0.977947
0.979431
0.980985
0.982582
0.984194
0.985781
0.987301
0.988696
0.989895
0.990811
0.991336
0.991328
0.990595
0.988873
0.985786
0.979667
0.971175
0.961885
0.95146
0.939356
0.924628
0.905365
0.877955
0.834805
0.759773
0.617082
0.326941
0.81166
0.944125
0.97679
0.986239
0.989793
0.991587
0.992784
0.993784
0.994718
0.995613
0.996432
0.997133
0.997704
0.998152
0.99849
0.99873
0.99889
0.998983
0.999026
0.999033
0.999016
0.998985
0.998953
0.998923
0.9989
0.998884
0.998879
0.99887
0.998858
0.998842
0.99882
0.998792
0.998756
0.998713
0.998657
0.99859
0.998509
0.998411
0.998298
0.998165
0.99801
0.997834
0.997632
0.997406
0.997151
0.996868
0.996556
0.996218
0.99585
0.995455
0.995037
0.994593
0.994127
0.993643
0.993142
0.992624
0.992098
0.991564
0.991022
0.990477
0.989931
0.989387
0.988845
0.988313
0.987786
0.987266
0.986758
0.986259
0.985775
0.9853
0.984841
0.98439
0.983957
0.983537
0.983128
0.982731
0.982347
0.981978
0.981623
0.981274
0.980942
0.980625
0.980312
0.980011
0.979721
0.979441
0.979172
0.978917
0.978676
0.978446
0.978234
0.978043
0.977867
0.977717
0.977588
0.977491
0.977423
0.977387
0.977392
0.977436
0.977531
0.977675
0.977874
0.978133
0.978456
0.978847
0.97931
0.979844
0.980458
0.981143
0.981902
0.982732
0.983629
0.984579
0.98557
0.986588
0.987617
0.988626
0.989585
0.990457
0.991192
0.991732
0.992009
0.991928
0.991377
0.99021
0.988224
0.985167
0.980552
0.97353
0.965487
0.956427
0.945959
0.933464
0.917428
0.894836
0.858216
0.788433
0.632259
0.483776
0.906713
0.97283
0.985624
0.98958
0.991417
0.992583
0.993537
0.994452
0.995388
0.996315
0.99714
0.997818
0.99834
0.998723
0.998986
0.999145
0.999216
0.999217
0.999164
0.999077
0.998972
0.998869
0.998774
0.998697
0.998642
0.998612
0.998605
0.998605
0.998612
0.998621
0.998631
0.998641
0.998648
0.998649
0.998644
0.998627
0.998602
0.998566
0.998513
0.998449
0.998366
0.998266
0.998147
0.998006
0.997848
0.997667
0.997463
0.997237
0.996991
0.996721
0.99643
0.99612
0.995792
0.995445
0.995083
0.99471
0.994325
0.993931
0.993532
0.99313
0.992721
0.992316
0.991912
0.991508
0.991112
0.990722
0.990341
0.989964
0.989598
0.989243
0.9889
0.988563
0.988242
0.987927
0.987624
0.987334
0.987052
0.986784
0.986525
0.986273
0.986038
0.985808
0.98559
0.985377
0.985173
0.984978
0.98479
0.984613
0.98445
0.984292
0.98415
0.984023
0.983907
0.983807
0.983729
0.983669
0.983634
0.983621
0.983638
0.983681
0.983763
0.983874
0.984028
0.984224
0.98446
0.984746
0.985076
0.985458
0.985886
0.986367
0.98689
0.987454
0.988057
0.988686
0.989331
0.98998
0.990612
0.991204
0.991735
0.992162
0.992452
0.99255
0.992399
0.99192
0.991019
0.989576
0.987443
0.98444
0.980375
0.974775
0.967643
0.959545
0.950153
0.939064
0.925067
0.905831
0.874692
0.811373
0.644901
0.634058
0.954143
0.982994
0.988714
0.99097
0.992241
0.993184
0.994047
0.994961
0.995942
0.996917
0.997749
0.998384
0.998842
0.999148
0.999326
0.999388
0.999349
0.999229
0.999051
0.99884
0.998624
0.998418
0.99824
0.9981
0.998005
0.997955
0.997945
0.997955
0.997984
0.998026
0.998077
0.998132
0.998192
0.99825
0.998302
0.998347
0.998382
0.998405
0.998417
0.998413
0.998397
0.998363
0.998312
0.998244
0.998158
0.998052
0.997929
0.997788
0.997627
0.997449
0.997252
0.997039
0.996811
0.996566
0.996311
0.99604
0.995762
0.995473
0.995179
0.994882
0.994581
0.994277
0.993974
0.993674
0.993376
0.993084
0.992795
0.992512
0.992239
0.991972
0.991712
0.991461
0.991215
0.990981
0.990755
0.990538
0.99033
0.99013
0.989939
0.989753
0.98958
0.989413
0.989254
0.989098
0.988951
0.988811
0.988678
0.988552
0.988432
0.988323
0.988219
0.988131
0.988049
0.987982
0.987928
0.987889
0.987861
0.987857
0.987869
0.987906
0.987962
0.988045
0.988153
0.988291
0.988457
0.988658
0.988887
0.989147
0.989438
0.989762
0.990108
0.990478
0.990865
0.991261
0.991652
0.992033
0.99238
0.992677
0.992896
0.993009
0.992983
0.992767
0.992311
0.991552
0.99041
0.988786
0.986563
0.983612
0.979794
0.974976
0.968826
0.96145
0.952821
0.942685
0.929983
0.912936
0.885914
0.829174
0.655966
0.762882
0.969745
0.986164
0.990085
0.991746
0.992765
0.993598
0.994435
0.995375
0.996421
0.997453
0.998269
0.998843
0.999224
0.99945
0.999531
0.999476
0.999296
0.999019
0.998677
0.998304
0.997935
0.997599
0.997315
0.997097
0.99695
0.996874
0.996861
0.996887
0.996944
0.997028
0.997132
0.997249
0.997373
0.9975
0.997626
0.997744
0.997852
0.997949
0.998031
0.9981
0.998151
0.998183
0.998198
0.998197
0.99818
0.998142
0.998087
0.998014
0.997925
0.997816
0.997693
0.997555
0.9974
0.997235
0.997059
0.996868
0.996671
0.996465
0.99625
0.996032
0.995811
0.995587
0.995362
0.995138
0.994915
0.994695
0.99448
0.994267
0.99406
0.993855
0.993661
0.99347
0.993288
0.99311
0.992939
0.992776
0.992617
0.992468
0.992322
0.992185
0.992055
0.991929
0.991812
0.991695
0.991587
0.991484
0.991383
0.991288
0.991201
0.991118
0.991042
0.990973
0.990915
0.990863
0.990821
0.990787
0.990767
0.990761
0.990764
0.990786
0.990821
0.990873
0.990945
0.991035
0.991145
0.991273
0.99142
0.991588
0.991773
0.991974
0.992187
0.992408
0.992634
0.992853
0.993057
0.993234
0.993368
0.993441
0.993429
0.993308
0.993042
0.992592
0.991911
0.990948
0.989627
0.987878
0.985597
0.98269
0.979044
0.974547
0.969098
0.962502
0.954454
0.945003
0.933164
0.917523
0.893342
0.84241
0.666021
0.844095
0.977965
0.9882
0.99092
0.992251
0.99313
0.9939
0.994736
0.995717
0.996844
0.997925
0.998708
0.999207
0.999507
0.999645
0.999616
0.999415
0.999055
0.998572
0.998014
0.99743
0.996866
0.996361
0.995945
0.995628
0.995421
0.995319
0.995304
0.99535
0.995447
0.995588
0.995761
0.995957
0.996168
0.996384
0.9966
0.996809
0.997007
0.997193
0.99736
0.997511
0.997643
0.997752
0.997841
0.997909
0.997958
0.997987
0.997996
0.997987
0.99796
0.997916
0.997856
0.997782
0.997692
0.997588
0.997472
0.997347
0.997213
0.997068
0.996919
0.996764
0.996603
0.996441
0.996277
0.996111
0.995946
0.995783
0.995619
0.995461
0.995303
0.995152
0.995005
0.99486
0.994721
0.994584
0.994457
0.994332
0.994213
0.994098
0.993985
0.99388
0.993782
0.993684
0.993594
0.993509
0.993424
0.993342
0.993265
0.993194
0.993123
0.993061
0.993001
0.992945
0.992897
0.992851
0.992816
0.992787
0.992764
0.992748
0.992745
0.992751
0.992766
0.99279
0.99283
0.992875
0.992938
0.993009
0.993091
0.993184
0.993284
0.993391
0.9935
0.993604
0.993702
0.993785
0.99384
0.99386
0.993825
0.993721
0.99353
0.993225
0.992775
0.992144
0.991292
0.99017
0.988718
0.986872
0.984553
0.981679
0.978155
0.973884
0.96876
0.962646
0.955336
0.946405
0.935191
0.920474
0.898136
0.851724
0.675416
0.902939
0.982561
0.989533
0.991586
0.992625
0.993387
0.99412
0.994967
0.996004
0.997214
0.998346
0.999072
0.999483
0.999704
0.999753
0.999593
0.999204
0.998607
0.997854
0.997014
0.996159
0.995351
0.99464
0.994061
0.993631
0.993355
0.993229
0.993218
0.993295
0.99345
0.993666
0.993931
0.99423
0.994549
0.994878
0.995209
0.995533
0.995845
0.996137
0.996408
0.996654
0.996877
0.997076
0.997246
0.997394
0.997517
0.997615
0.997691
0.997746
0.997781
0.997796
0.997794
0.997776
0.997742
0.997694
0.997633
0.997562
0.997479
0.997389
0.99729
0.997186
0.997076
0.996962
0.996844
0.996727
0.996607
0.996487
0.996366
0.996248
0.996132
0.996017
0.995906
0.995796
0.99569
0.995588
0.99549
0.995396
0.995302
0.995212
0.995127
0.995046
0.994969
0.994893
0.994822
0.994752
0.994688
0.994621
0.99456
0.994502
0.994444
0.99439
0.99434
0.994293
0.994247
0.994208
0.994172
0.994141
0.994114
0.994093
0.994076
0.994064
0.99406
0.994064
0.994071
0.994085
0.994104
0.994126
0.994154
0.994186
0.994217
0.994244
0.994267
0.994279
0.994273
0.99424
0.994176
0.994067
0.993902
0.993659
0.993321
0.992868
0.992268
0.99149
0.9905
0.989255
0.987699
0.98578
0.983433
0.980581
0.977146
0.973037
0.968148
0.962334
0.955384
0.946953
0.93639
0.922315
0.901143
0.857766
0.684401
0.937466
0.985403
0.990448
0.992063
0.992932
0.993584
0.994277
0.995141
0.996233
0.997532
0.998712
0.999362
0.999683
0.999835
0.999789
0.999464
0.998826
0.997916
0.996814
0.995616
0.994423
0.993317
0.992359
0.99159
0.991031
0.990687
0.990544
0.990544
0.990671
0.990904
0.991225
0.99161
0.992041
0.992501
0.992973
0.993446
0.993911
0.994356
0.994777
0.99517
0.995534
0.995864
0.996162
0.996427
0.996661
0.996864
0.997041
0.997189
0.997309
0.997407
0.997484
0.997541
0.997575
0.997594
0.997598
0.997587
0.997563
0.997527
0.997484
0.997427
0.997367
0.997299
0.997225
0.997149
0.997067
0.996986
0.9969
0.996814
0.996729
0.996644
0.99656
0.996478
0.996397
0.996315
0.996238
0.996162
0.996088
0.996016
0.995947
0.995882
0.995816
0.995752
0.995693
0.995634
0.995578
0.995522
0.995469
0.995417
0.995367
0.995316
0.995269
0.995224
0.99518
0.995135
0.995096
0.995058
0.99502
0.994989
0.994957
0.994926
0.994901
0.994879
0.994856
0.99484
0.994822
0.994805
0.994786
0.994769
0.994745
0.994717
0.99468
0.99463
0.99456
0.99447
0.994346
0.994181
0.993964
0.993684
0.993325
0.992867
0.992288
0.991568
0.990671
0.989568
0.988223
0.986584
0.984606
0.982232
0.979397
0.976028
0.972039
0.967322
0.961732
0.95506
0.946954
0.936777
0.923202
0.90277
0.861132
0.693138
0.952302
0.988106
0.9911
0.992404
0.993145
0.99375
0.994393
0.995261
0.996412
0.997802
0.999031
0.999588
0.99982
0.999916
0.999762
0.999221
0.998258
0.99694
0.995395
0.993756
0.992154
0.990691
0.989447
0.988468
0.987774
0.987365
0.987223
0.987251
0.98745
0.98779
0.988245
0.988785
0.989383
0.990016
0.990664
0.991311
0.99194
0.992544
0.993119
0.993653
0.994149
0.994604
0.995017
0.995389
0.995721
0.996015
0.996274
0.996499
0.996693
0.996858
0.996997
0.997111
0.997203
0.997274
0.997327
0.997361
0.997384
0.997391
0.997388
0.997374
0.997349
0.997318
0.99728
0.997238
0.997189
0.997138
0.997083
0.997026
0.996967
0.996908
0.996849
0.996788
0.996727
0.996669
0.996611
0.99655
0.996495
0.996437
0.996384
0.996328
0.996277
0.996224
0.996174
0.996125
0.996079
0.99603
0.995983
0.995938
0.995891
0.995846
0.995799
0.995754
0.99571
0.995667
0.995623
0.99558
0.995536
0.995494
0.995454
0.995413
0.995371
0.99533
0.995287
0.995243
0.995197
0.995147
0.995093
0.995032
0.994964
0.994884
0.994789
0.994674
0.994538
0.994371
0.994167
0.993916
0.993611
0.993235
0.992774
0.992213
0.991531
0.990704
0.989708
0.988514
0.987083
0.985374
0.98335
0.980954
0.978131
0.97481
0.970911
0.966323
0.960905
0.954445
0.946595
0.936733
0.923558
0.90371
0.863308
0.699427
0.961453
0.989097
0.991573
0.992644
0.993291
0.993851
0.994492
0.99533
0.996538
0.998022
0.999302
0.999752
0.999907
0.999961
0.999677
0.998849
0.997461
0.995628
0.993533
0.991362
0.989276
0.987406
0.985841
0.984633
0.983802
0.983344
0.983225
0.983309
0.983612
0.984099
0.98473
0.985465
0.986268
0.987112
0.987968
0.988818
0.989644
0.990435
0.991181
0.991877
0.992523
0.993116
0.993656
0.994145
0.994585
0.994978
0.995329
0.995635
0.995906
0.996142
0.996346
0.996521
0.996669
0.996793
0.996895
0.996978
0.997043
0.997092
0.997128
0.997151
0.997162
0.997164
0.997158
0.997145
0.997125
0.9971
0.997071
0.997038
0.997003
0.996963
0.996922
0.996882
0.99684
0.996796
0.996752
0.996708
0.996663
0.996618
0.996573
0.996528
0.996484
0.996442
0.996399
0.996357
0.996313
0.99627
0.996225
0.996183
0.996137
0.996094
0.996047
0.996001
0.995953
0.995908
0.995859
0.995811
0.99576
0.995708
0.995656
0.9956
0.995544
0.995485
0.99542
0.995352
0.99528
0.9952
0.995113
0.995014
0.994903
0.994775
0.994629
0.994461
0.994263
0.994029
0.993752
0.993427
0.99304
0.992581
0.992034
0.991383
0.990612
0.989697
0.988618
0.987343
0.985839
0.984077
0.982013
0.979597
0.976782
0.973497
0.969665
0.965178
0.959895
0.953605
0.945962
0.936352
0.923502
0.904119
0.86466
0.703812
0.96772
0.989847
0.99195
0.992796
0.993358
0.993895
0.994544
0.995389
0.996611
0.998188
0.999525
0.999866
0.999957
0.999984
0.999531
0.998326
0.996391
0.993922
0.99117
0.988374
0.985734
0.983404
0.981488
0.980043
0.979088
0.978604
0.978484
0.978661
0.979121
0.97981
0.980672
0.981656
0.982717
0.983815
0.98492
0.986006
0.987055
0.988054
0.988995
0.98987
0.99068
0.991423
0.992101
0.992716
0.993271
0.993769
0.994214
0.994612
0.994963
0.995272
0.995545
0.995782
0.995987
0.996164
0.996316
0.996445
0.996552
0.996642
0.996715
0.996774
0.996818
0.996851
0.996875
0.996888
0.996894
0.996894
0.996887
0.996875
0.996859
0.996839
0.996816
0.996789
0.996761
0.99673
0.996698
0.996666
0.996631
0.996595
0.996558
0.996522
0.996482
0.996443
0.996404
0.996367
0.996326
0.996283
0.996242
0.996197
0.996154
0.996107
0.996059
0.996011
0.995958
0.995907
0.995852
0.995796
0.995734
0.995672
0.995607
0.995538
0.995467
0.995387
0.995304
0.995214
0.995113
0.995005
0.994884
0.994751
0.994601
0.994431
0.994238
0.994019
0.993765
0.99347
0.993134
0.992741
0.992283
0.991748
0.991125
0.990395
0.989547
0.988556
0.987403
0.986062
0.984501
0.98269
0.980592
0.978162
0.975349
0.972095
0.968313
0.963907
0.958734
0.952582
0.945108
0.935709
0.923125
0.904124
0.865395
0.706746
0.972211
0.990387
0.992166
0.992878
0.993368
0.99387
0.994533
0.995431
0.996641
0.998301
0.999706
0.999937
0.999983
0.999995
0.999317
0.997624
0.995008
0.991771
0.988248
0.984736
0.981473
0.978637
0.976347
0.974667
0.973609
0.973141
0.973046
0.97337
0.974044
0.974993
0.976145
0.977432
0.978797
0.980193
0.981581
0.982933
0.984231
0.985457
0.986605
0.987675
0.988659
0.98956
0.990382
0.991128
0.991802
0.992408
0.992952
0.993439
0.993872
0.994257
0.994597
0.994898
0.995162
0.995394
0.995595
0.995772
0.99592
0.996049
0.996158
0.996249
0.996327
0.996388
0.996439
0.99648
0.996509
0.996531
0.996544
0.99655
0.996552
0.996547
0.99654
0.996525
0.99651
0.996488
0.996467
0.996442
0.996414
0.996385
0.996355
0.996322
0.996287
0.996253
0.996215
0.996176
0.996136
0.996095
0.996051
0.996007
0.99596
0.995911
0.995859
0.995803
0.995747
0.995688
0.995626
0.995559
0.995489
0.995416
0.995337
0.995254
0.995164
0.995067
0.994962
0.994849
0.994725
0.994586
0.994437
0.994269
0.994083
0.993874
0.993637
0.99337
0.993065
0.99272
0.992323
0.991869
0.991348
0.990746
0.990057
0.989262
0.988345
0.987289
0.986073
0.984674
0.98306
0.981209
0.979084
0.976639
0.97383
0.970597
0.966861
0.96252
0.957438
0.951402
0.944077
0.934854
0.922503
0.90382
0.865645
0.708559
0.975516
0.990767
0.992277
0.992887
0.993307
0.993782
0.994457
0.99541
0.99667
0.998356
0.999844
0.999977
0.999995
0.999999
0.999026
0.996711
0.993267
0.989128
0.984723
0.98041
0.976462
0.973077
0.970395
0.968487
0.967361
0.966964
0.966989
0.967527
0.968489
0.969766
0.97127
0.972916
0.974629
0.976356
0.978053
0.979694
0.981251
0.982719
0.984082
0.985346
0.986508
0.98757
0.988537
0.989414
0.990206
0.990923
0.991564
0.99214
0.992655
0.993116
0.993524
0.993886
0.994208
0.994491
0.994741
0.994959
0.995153
0.995318
0.995464
0.995587
0.995695
0.995784
0.99586
0.995924
0.995976
0.996017
0.996049
0.996072
0.996089
0.996098
0.996103
0.996099
0.996094
0.996081
0.996067
0.996049
0.996027
0.996002
0.995974
0.995943
0.995913
0.995876
0.995839
0.995802
0.99576
0.995719
0.995671
0.995624
0.995572
0.995518
0.995459
0.995399
0.995333
0.995267
0.995195
0.995119
0.995039
0.994952
0.99486
0.994759
0.994652
0.994538
0.994411
0.994276
0.994128
0.993964
0.993783
0.993585
0.993363
0.993114
0.992839
0.992528
0.992177
0.991779
0.991332
0.990823
0.990244
0.989588
0.988837
0.987981
0.987005
0.985891
0.984622
0.98317
0.981517
0.979633
0.977482
0.975028
0.972224
0.969011
0.965311
0.961028
0.956023
0.950088
0.942889
0.933831
0.921679
0.903265
0.865522
0.709507
0.977983
0.991028
0.992309
0.992823
0.993182
0.993622
0.99431
0.995323
0.996682
0.998368
0.99994
0.999994
0.999998
1
0.998647
0.995559
0.991129
0.985956
0.98057
0.97538
0.970686
0.966708
0.963614
0.961494
0.960358
0.960045
0.960283
0.961151
0.962515
0.964232
0.966176
0.968244
0.970353
0.972443
0.974468
0.976403
0.978226
0.979929
0.981507
0.98296
0.984292
0.985507
0.986612
0.987614
0.988518
0.989339
0.990074
0.990735
0.991326
0.991855
0.99233
0.992755
0.99313
0.993466
0.993762
0.994024
0.994255
0.994459
0.994636
0.994791
0.994924
0.995041
0.995141
0.995226
0.995297
0.995357
0.995403
0.995442
0.995472
0.995493
0.995507
0.995514
0.995517
0.995512
0.995503
0.99549
0.995471
0.995448
0.995422
0.995393
0.995362
0.995326
0.995287
0.995245
0.995201
0.995156
0.995104
0.995051
0.994994
0.994935
0.99487
0.994801
0.994729
0.994651
0.994569
0.994482
0.994388
0.994287
0.99418
0.994064
0.99394
0.993806
0.993661
0.993504
0.993328
0.993138
0.99293
0.9927
0.992446
0.992161
0.991847
0.991495
0.991101
0.99066
0.990165
0.989604
0.988976
0.988265
0.987462
0.986554
0.985526
0.984363
0.983046
0.981556
0.979867
0.977952
0.975786
0.973324
0.970527
0.967327
0.963666
0.959436
0.954501
0.948656
0.941573
0.932659
0.920694
0.902515
0.865112
0.709775
0.97984
0.991179
0.992264
0.992673
0.992989
0.993391
0.994085
0.995162
0.996627
0.998377
0.999991
1
1
1
0.998164
0.994137
0.988564
0.982235
0.97578
0.969648
0.964151
0.959533
0.956
0.953694
0.952625
0.952264
0.95288
0.95427
0.95622
0.958528
0.96103
0.963598
0.966148
0.968621
0.970979
0.973203
0.975275
0.9772
0.978969
0.980594
0.982079
0.983434
0.984662
0.985775
0.986779
0.987689
0.98851
0.989247
0.98991
0.990504
0.991037
0.991515
0.991942
0.992323
0.992662
0.992963
0.99323
0.993467
0.993675
0.993859
0.994019
0.994158
0.994279
0.994384
0.994472
0.994546
0.994608
0.994661
0.994701
0.994731
0.994755
0.994769
0.994777
0.994778
0.994771
0.994761
0.994746
0.994724
0.994697
0.994669
0.994635
0.994596
0.994554
0.994511
0.994462
0.99441
0.994355
0.994294
0.994229
0.994161
0.994087
0.99401
0.993929
0.993839
0.993746
0.993645
0.993539
0.993423
0.993302
0.99317
0.993027
0.992874
0.992708
0.992525
0.992327
0.992112
0.991876
0.991617
0.99133
0.991015
0.990663
0.990274
0.989841
0.989357
0.988817
0.988214
0.987541
0.986783
0.98593
0.984979
0.983906
0.9827
0.981343
0.97982
0.978102
0.976167
0.973988
0.97152
0.968728
0.965553
0.961924
0.957739
0.952873
0.947118
0.940144
0.931367
0.919576
0.901605
0.864475
0.709494
0.981216
0.991251
0.99216
0.992468
0.992723
0.993077
0.993774
0.994917
0.996504
0.998385
1
0.999999
0.999998
0.999999
0.997567
0.992424
0.985549
0.97796
0.970373
0.963255
0.956905
0.951572
0.94754
0.945073
0.944194
0.944151
0.945323
0.947403
0.95008
0.953078
0.956194
0.959288
0.962277
0.965112
0.967775
0.970248
0.972538
0.974644
0.976573
0.978337
0.979945
0.981409
0.982737
0.983941
0.985029
0.986015
0.986904
0.987703
0.988425
0.989076
0.989657
0.990181
0.990651
0.991072
0.991446
0.991782
0.992081
0.992346
0.992583
0.992791
0.992974
0.993132
0.993273
0.993395
0.993496
0.993587
0.993659
0.993722
0.993771
0.993809
0.993838
0.993856
0.993869
0.993873
0.99387
0.993859
0.993841
0.993822
0.993792
0.993761
0.993722
0.993683
0.993636
0.993586
0.993532
0.993473
0.993408
0.99334
0.993268
0.993191
0.993109
0.993019
0.992926
0.992827
0.99272
0.992606
0.992484
0.992356
0.992217
0.992067
0.991908
0.991733
0.991545
0.991344
0.991122
0.990881
0.99062
0.990329
0.990015
0.989666
0.989281
0.988857
0.988386
0.987865
0.987286
0.986643
0.985927
0.985128
0.984238
0.983244
0.982133
0.980893
0.979503
0.977951
0.976213
0.974261
0.972074
0.96961
0.966828
0.963675
0.960076
0.955945
0.951145
0.945476
0.938614
0.929974
0.918342
0.900571
0.863655
0.708776
0.982219
0.991259
0.992004
0.992207
0.99238
0.992678
0.993369
0.99458
0.996304
0.998354
1
1
0.999998
0.999997
0.996851
0.990395
0.982074
0.97315
0.964407
0.95629
0.949038
0.942878
0.938202
0.935591
0.934538
0.935237
0.937535
0.940801
0.944521
0.948355
0.95211
0.955695
0.959053
0.962173
0.965058
0.967711
0.970144
0.972374
0.97441
0.976267
0.977959
0.979495
0.980891
0.982154
0.983304
0.984343
0.985279
0.98613
0.986895
0.987585
0.988207
0.988766
0.98927
0.989721
0.990128
0.990488
0.990812
0.9911
0.991359
0.991585
0.991786
0.991962
0.992116
0.99225
0.992367
0.992466
0.992548
0.992616
0.992674
0.992716
0.992751
0.992773
0.992785
0.992789
0.992787
0.992775
0.992756
0.992732
0.992702
0.992666
0.992623
0.992574
0.992522
0.992464
0.992403
0.992337
0.992263
0.992186
0.992104
0.992015
0.991922
0.991823
0.991717
0.991603
0.991483
0.991354
0.991219
0.991073
0.990916
0.99075
0.99057
0.990378
0.990168
0.989943
0.989698
0.989434
0.989145
0.988828
0.988484
0.988105
0.987691
0.987233
0.986729
0.986174
0.985561
0.984882
0.984128
0.983295
0.982371
0.981343
0.980199
0.978932
0.977519
0.975945
0.974191
0.972231
0.970041
0.96758
0.964813
0.961684
0.958126
0.954047
0.949313
0.943734
0.936983
0.928483
0.917013
0.899433
0.86268
0.707691
0.98291
0.991208
0.991802
0.991866
0.991921
0.992183
0.992864
0.994141
0.996018
0.998275
0.999997
0.999997
0.999998
0.999996
0.996005
0.988031
0.978137
0.967858
0.957996
0.948928
0.940754
0.933604
0.927942
0.92507
0.924129
0.926502
0.930799
0.935719
0.940579
0.945137
0.949348
0.953223
0.956776
0.96003
0.963008
0.965731
0.968217
0.97049
0.972563
0.97445
0.976171
0.977743
0.979167
0.98046
0.981633
0.982702
0.983669
0.984543
0.985334
0.986049
0.986695
0.987278
0.987803
0.988276
0.988701
0.989082
0.989423
0.989727
0.989999
0.990241
0.990454
0.99064
0.990806
0.990949
0.99107
0.991178
0.991266
0.991338
0.991398
0.991442
0.991477
0.991499
0.991511
0.991514
0.991508
0.991495
0.991471
0.991441
0.991406
0.991362
0.991314
0.991257
0.991197
0.991131
0.99106
0.990984
0.990899
0.990811
0.990718
0.990617
0.99051
0.990398
0.990277
0.990151
0.990016
0.989874
0.98972
0.989558
0.989384
0.989198
0.989
0.988786
0.988557
0.988312
0.988043
0.987755
0.98744
0.987097
0.986726
0.98632
0.985877
0.985389
0.984856
0.98427
0.983625
0.982914
0.982131
0.981267
0.980311
0.979259
0.978092
0.9768
0.975368
0.973781
0.972017
0.970054
0.967861
0.965415
0.962668
0.959571
0.956056
0.952036
0.94738
0.94189
0.935261
0.926904
0.915604
0.898206
0.861582
0.706289
0.983323
0.991107
0.991557
0.99146
0.991361
0.991596
0.992248
0.993587
0.995631
0.998145
1
1
0.999998
1
0.99502
0.985312
0.973754
0.962177
0.951339
0.941496
0.932501
0.924231
0.916835
0.911112
0.913453
0.921418
0.928603
0.934147
0.939236
0.943933
0.948267
0.952111
0.955616
0.958805
0.96172
0.964386
0.966822
0.969047
0.971081
0.972937
0.974636
0.976181
0.977596
0.978877
0.980046
0.981109
0.982078
0.982957
0.983754
0.984479
0.985129
0.98572
0.986254
0.986736
0.98717
0.98756
0.987908
0.988223
0.9885
0.988749
0.988968
0.98916
0.989328
0.989474
0.989601
0.989707
0.989797
0.98987
0.989928
0.989973
0.990005
0.990024
0.990032
0.99003
0.99002
0.989997
0.989968
0.989932
0.989887
0.989835
0.989778
0.989711
0.98964
0.989563
0.989481
0.989391
0.989297
0.989195