/*--------------------------------*- C++ -*----------------------------------*\
  =========                 |
  \\      /  F ield         | OpenFOAM: The Open Source CFD Toolbox
   \\    /   O peration     | Website:  https://openfoam.org
    \\  /    A nd           | Version:  13
     \\/     M anipulation  |
\*---------------------------------------------------------------------------*/
FoamFile
{
    format      ascii;
    class       volScalarField;
    location    "504.831886";
    object      T;
}
// * * * * * * * * * * * * * * * * * * * * * * * * * * * * * * * * * * * * * //

dimensions      [0 0 0 1 0 0 0];

internalField   nonuniform List<scalar> 
5712
(
316.118
316.145
316.19
316.232
316.3
316.342
316.451
316.486
316.421
316.462
316.302
316.343
316.215
316.254
316.15
316.179
316.333
316.388
316.406
316.481
316.518
316.588
316.585
316.674
316.022
315.865
316.051
315.904
316.091
315.94
316.136
315.994
316.247
316.163
316.324
316.218
316.033
316.122
316.497
316.63
316.57
316.67
316.665
316.778
316.752
316.838
316.338
316.477
316.418
316.524
316.211
316.346
315.685
315.578
315.76
315.649
315.76
315.626
315.849
315.725
315.871
315.689
316.007
315.838
316.112
315.946
316.233
316.063
316.374
316.398
316.49
316.502
316.618
316.649
316.711
316.742
316.277
316.246
316.14
316.135
316.588
316.588
316.677
316.66
316.795
316.82
316.873
316.887
316.389
316.337
316.488
316.411
316.068
315.865
315.992
315.763
315.921
315.713
315.876
315.639
316.189
315.992
316.086
315.863
316.297
316.102
316.161
315.941
315.43
315.196
315.391
315.159
315.5
315.282
315.43
315.208
315.619
315.451
315.495
315.313
316.21
316.498
315.948
315.75
315.538
316.457
316.152
315.84
315.629
315.399
316.532
316.261
315.998
315.749
315.506
314.98
314.873
314.862
314.767
315.089
314.966
314.936
314.833
315.279
315.141
315.062
314.94
316.389
316.277
316.056
315.904
315.749
315.591
315.504
315.348
315.182
315.026
316.482
316.391
316.178
316.019
315.892
315.713
315.609
315.415
315.253
315.05
316.32
316.143
316.448
316.291
316.619
316.566
316.734
316.703
316.146
315.938
316.021
315.8
316.557
316.4
316.628
316.478
316.826
316.798
316.893
316.872
316.26
316.048
316.331
316.124
315.802
315.552
315.378
315.076
315.701
315.438
315.31
315.013
315.895
315.653
315.443
315.145
315.983
315.738
315.535
315.253
314.839
314.792
314.705
314.818
314.798
314.719
314.909
314.851
314.758
314.87
314.846
314.76
315.053
314.976
314.872
314.951
314.914
314.817
316.139
315.983
315.816
315.742
315.605
315.458
315.441
315.323
315.195
315.226
315.127
315.004
315.015
314.963
314.85
316.263
316.087
315.899
315.809
315.625
315.439
315.499
315.337
315.171
315.249
315.126
314.98
315.019
314.951
314.82
316.846
316.903
316.897
316.969
316.698
316.768
316.756
316.842
316.875
316.991
316.889
316.997
316.909
317.013
316.934
317.031
317.014
316.966
317.045
316.988
317.034
317.074
317.027
317.093
316.912
316.986
317.047
317.11
317.091
317.152
317.098
317.16
317.108
317.212
317.089
317.186
317.124
317.23
317.119
317.217
317.138
317.254
317.165
317.271
317.186
317.279
317.239
317.316
316.977
317.027
317.043
317.098
316.822
316.864
316.898
316.945
317.144
317.21
317.087
317.147
317.107
317.16
317.171
317.215
316.971
317.014
317.041
317.075
317.2
317.265
317.259
317.313
317.229
317.32
317.283
317.337
317.182
317.281
317.228
317.291
317.275
317.356
317.331
317.377
317.326
317.393
317.374
317.412
317.103
317.052
317.201
317.147
317.105
317.051
317.208
317.153
317.107
317.058
317.22
317.17
316.928
316.744
317.044
317.136
317.234
316.706
316.888
316.996
317.086
317.19
316.779
316.959
317.088
317.175
317.246
316.964
316.843
317.058
316.94
316.971
316.855
317.072
316.959
316.989
316.879
317.1
316.994
316.656
316.563
316.849
316.754
316.96
316.862
317.045
316.945
317.142
317.043
316.748
316.692
316.932
316.876
317.057
316.99
317.138
317.056
317.2
317.099
317.037
317.016
317.11
317.109
316.869
316.854
316.957
316.967
317.208
317.182
317.145
317.103
317.166
317.181
317.221
317.241
317.025
317.05
317.086
317.118
317.259
317.247
317.308
317.3
317.269
317.216
317.297
317.215
317.211
317.144
317.252
317.159
317.316
317.276
317.336
317.264
317.356
317.321
317.371
317.308
316.678
316.515
316.362
316.737
316.553
316.399
316.701
316.535
316.378
316.764
316.579
316.418
316.734
316.572
316.412
316.808
316.613
316.442
316.437
316.28
316.111
316.625
316.462
316.29
316.731
316.561
316.385
316.806
316.636
316.465
316.855
316.65
316.463
316.591
316.421
316.23
316.77
316.596
316.403
316.869
316.684
316.485
316.913
316.719
316.518
316.902
316.687
316.481
317.255
317.185
317
316.66
317.224
317.149
316.958
316.615
317.269
317.195
317.01
316.667
317.249
317.169
316.975
316.632
317.286
317.209
317.031
316.698
317.294
317.207
317.017
316.677
317.289
317.192
316.988
316.64
317.309
317.201
316.989
316.637
317.328
317.236
317.05
316.712
317.322
317.223
317.053
316.749
317.298
317.215
317.047
316.735
317.289
317.2
317.042
316.756
317.352
317.25
317.049
316.7
317.351
317.243
317.062
316.751
317.377
317.265
317.058
316.709
317.376
317.26
317.074
316.765
317.249
317.187
317.019
316.699
317.206
317.153
317.01
316.73
317.253
317.189
317.023
316.705
317.208
317.153
317.01
316.733
317.259
317.19
317.029
316.721
317.217
317.156
317.013
316.739
317.26
317.186
317.033
316.743
317.226
317.158
317.017
316.751
317.256
317.176
317.03
316.764
317.139
317.095
316.966
316.766
317.063
317.025
316.893
316.706
317.147
317.099
316.969
316.77
317.072
317.029
316.896
316.707
317.162
317.107
316.974
316.773
317.087
317.037
316.899
316.711
317.184
317.12
316.983
316.781
317.108
317.047
316.906
316.716
317.213
317.136
316.994
316.79
317.132
317.06
316.913
316.72
317.268
317.167
317.009
316.797
317.195
317.096
316.935
316.736
317.241
317.151
317.001
316.793
317.164
317.078
316.924
316.728
317.292
317.181
317.017
316.801
317.224
317.113
316.946
316.744
317.315
317.196
317.027
316.809
317.25
317.13
316.957
316.753
316.144
315.729
315.375
315.088
314.867
316.118
315.707
315.355
315.068
314.848
316.147
315.73
315.376
315.089
314.868
316.123
315.711
315.357
315.07
314.849
316.153
315.733
315.378
315.09
314.869
316.142
315.727
315.372
315.085
314.864
316.132
315.716
315.361
315.073
314.852
316.138
315.72
315.364
315.076
314.854
316.157
315.735
315.379
315.091
314.87
316.136
315.704
315.347
315.059
314.838
316.152
315.728
315.372
315.084
314.863
316.129
315.697
315.341
315.053
314.832
316.157
315.735
315.378
315.09
314.868
316.133
315.701
315.343
315.055
314.834
316.164
315.739
315.382
315.092
314.871
316.135
315.7
315.342
315.053
314.832
316.141
315.719
315.365
315.077
314.857
316.11
315.682
315.328
315.041
314.821
316.142
315.718
315.363
315.076
314.855
316.111
315.682
315.327
315.04
314.82
316.141
315.715
315.36
315.072
314.851
316.111
315.68
315.325
315.038
314.818
316.132
315.702
315.346
315.058
314.837
316.106
315.674
315.318
315.031
314.811
316.114
315.682
315.326
315.039
314.818
314.371
314.305
314.402
314.334
314.457
314.381
314.528
314.439
314.599
314.495
314.711
314.592
314.654
314.537
314.767
314.652
314.825
314.721
313.644
312.851
312.186
311.67
311.32
313.656
312.857
312.185
311.666
311.31
313.658
312.858
312.19
311.674
311.323
313.668
312.862
312.189
311.667
311.312
313.685
312.873
312.2
311.681
311.329
313.695
312.877
312.199
311.674
311.318
313.723
312.895
312.215
311.692
311.339
313.729
312.897
312.212
311.684
311.326
313.766
312.924
312.235
311.707
311.351
313.766
312.921
312.229
311.697
311.337
313.861
312.993
312.286
311.748
311.387
313.851
312.983
312.275
311.734
311.371
313.814
312.957
312.259
311.726
311.368
313.806
312.949
312.249
311.713
311.351
313.908
313.029
312.315
311.771
311.408
313.902
313.022
312.305
311.759
311.393
313.956
313.067
312.344
311.795
311.429
313.957
313.064
312.339
311.786
311.417
317.017
316.912
316.819
316.94
316.781
316.797
316.802
316.825
316.768
316.799
316.627
316.663
316.553
316.593
316.658
316.692
316.7
316.723
316.707
316.726
316.931
316.957
316.633
316.506
316.466
316.453
316.57
316.634
316.487
316.657
316.36
316.171
316.622
316.569
316.422
316.582
316.517
316.504
316.755
316.764
316.682
316.71
316.748
316.778
316.742
316.695
316.53
316.561
316.622
316.653
316.879
316.918
316.848
316.879
316.83
316.82
316.731
316.62
316.734
317.123
317.222
317.263
317.257
317.203
317.1
317.182
317.217
317.203
317.133
316.729
316.773
316.778
316.739
316.656
316.597
316.638
316.638
316.597
316.513
316.559
316.601
316.603
316.564
316.481
316.545
316.585
316.586
316.545
316.461
316.664
316.708
316.711
316.672
316.588
316.844
316.97
317.037
317.05
317.011
316.71
316.847
316.917
316.93
316.885
316.806
316.902
316.952
316.948
316.884
316.566
316.697
316.761
316.769
316.713
316.371
316.504
316.57
316.577
316.522
316.74
316.808
316.835
316.814
316.74
316.706
316.792
316.834
316.825
316.757
316.554
316.637
316.676
316.665
316.596
316.691
316.751
316.771
316.745
316.668
316.633
316.7
316.726
316.705
316.631
316.611
316.67
316.688
316.66
316.583
316.947
317.055
317.11
317.115
317.068
316.895
316.975
317.013
317
316.931
316.793
316.856
316.877
316.852
316.776
316.816
316.873
316.889
316.86
316.782
316.863
316.928
316.953
316.93
316.854
316.887
316.946
316.964
316.936
316.858
316.843
316.894
316.904
316.87
316.789
316.795
316.845
316.855
316.821
316.74
316.63
316.679
316.688
316.654
316.573
316.657
316.703
316.709
316.672
316.59
316.727
316.782
316.796
316.766
316.687
316.754
316.805
316.816
316.783
316.702
317.066
317.166
317.211
317.209
317.158
317.052
317.129
317.162
317.145
317.074
317.002
317.092
317.136
317.13
317.071
316.998
317.066
317.091
317.069
316.994
316.942
317.004
317.025
316.999
316.922
316.949
317.026
317.061
317.046
316.976
316.833
316.885
316.896
316.863
316.783
316.717
316.763
316.769
316.732
316.65
316.839
316.894
316.909
316.878
316.799
316.953
316.895
316.949
316.884
317.093
317.025
317.096
317.036
316.943
316.936
316.881
316.893
317.091
317.088
317.029
317.047
316.806
316.661
316.753
316.614
316.805
316.674
316.743
316.615
316.74
316.795
316.771
316.808
316.694
316.638
316.804
316.738
316.833
316.76
316.947
316.877
316.987
316.92
316.666
316.595
316.708
316.627
316.561
316.476
316.529
316.414
316.488
316.379
316.538
316.401
316.485
316.365
316.562
316.376
316.526
316.361
316.454
316.286
316.356
316.184
316.89
316.853
316.86
316.818
317.074
317.062
317.042
317.031
316.685
316.579
316.712
316.616
316.812
316.775
316.751
316.722
316.996
316.992
316.939
316.945
316.637
316.535
316.57
316.477
316.504
316.299
316.332
316.101
316.522
316.301
316.364
316.12
316.457
316.261
316.289
316.064
316.386
316.192
316.229
316.008
316.519
316.453
316.392
316.286
316.53
316.475
316.373
316.272
316.55
316.521
316.339
316.255
316.898
317.088
316.712
316.512
316.259
317.094
316.914
316.728
316.518
316.216
317.078
316.874
316.639
316.382
316.118
316.344
316.295
316.008
315.91
316.395
316.346
316.028
315.93
316.471
316.43
316.052
315.953
317.091
317.064
316.898
316.866
316.697
316.664
316.454
316.413
316.021
315.915
317.077
317.05
316.853
316.786
316.597
316.513
316.302
316.201
315.904
315.776
316.799
316.684
316.768
316.65
317.055
317.044
317.028
317.024
316.48
316.311
316.518
316.358
316.741
316.605
316.688
316.543
316.996
316.984
316.949
316.932
316.452
316.262
316.394
316.193
316.136
315.918
315.7
315.425
316.194
315.983
315.779
315.522
316.091
315.865
315.632
315.348
316.049
315.808
315.595
315.316
316.276
316.233
315.974
315.968
316.325
316.278
315.986
315.985
316.398
316.33
315.999
315.994
317.008
316.909
316.806
316.712
316.611
316.531
316.37
316.294
315.975
315.975
316.994
316.887
316.695
316.597
316.433
316.36
316.169
316.136
315.896
315.916
317.325
317.329
317.264
317.29
317.221
317.225
317.157
317.184
317.399
317.451
317.341
317.395
317.397
317.445
317.334
317.386
317.344
317.397
317.352
317.392
317.434
317.383
317.233
317.165
317.128
317.061
317.27
317.193
317.293
317.225
317.311
317.24
317.482
317.502
317.428
317.45
317.481
317.506
317.424
317.454
317.477
317.511
317.434
317.474
317.369
317.416
317.306
317.366
317.347
317.351
317.319
317.331
317.229
317.231
317.198
317.205
317.399
317.415
317.425
317.432
317.277
317.3
317.227
317.262
317.154
317.17
317.101
317.128
317.359
317.389
317.312
317.355
317.456
317.495
317.463
317.484
317.48
317.51
317.477
317.493
317.418
317.466
317.441
317.466
317.374
317.431
317.411
317.442
317.506
317.496
317.522
317.506
317.501
317.491
317.521
317.504
317.49
317.482
317.517
317.502
317.358
317.242
317.434
317.484
317.509
317.241
317.353
317.427
317.477
317.498
317.244
317.359
317.437
317.48
317.493
317.458
317.39
317.46
317.388
317.458
317.395
317.463
317.394
317.457
317.401
317.468
317.404
317.241
317.215
317.352
317.319
317.42
317.379
317.462
317.414
317.472
317.414
317.251
317.24
317.364
317.349
317.434
317.407
317.469
317.426
317.47
317.412
317.367
317.371
317.343
317.359
317.249
317.263
317.22
317.249
317.416
317.408
317.435
317.418
317.305
317.33
317.267
317.29
317.18
317.217
317.137
317.172
317.384
317.382
317.349
317.345
317.451
317.418
317.447
317.39
317.466
317.425
317.461
317.401
317.426
317.396
317.426
317.368
317.394
317.362
317.401
317.342
317.308
317.231
317.282
317.191
317.318
317.235
317.29
317.194
317.328
317.236
317.302
317.191
317.159
317.059
317.258
317.155
317.314
317.21
317.342
317.235
317.311
317.18
317.195
317.08
317.295
317.174
317.339
317.213
317.342
317.21
317.298
317.149
317.456
317.32
317.092
316.723
317.409
317.274
317.043
316.673
317.459
317.324
317.097
316.724
317.414
317.28
317.052
316.683
317.461
317.327
317.111
316.751
317.433
317.301
317.082
316.721
317.382
317.255
317.032
316.67
317.342
317.224
317.004
316.649
317.448
317.317
317.107
316.752
317.425
317.293
317.103
316.786
317.456
317.322
317.121
316.784
317.43
317.295
317.108
316.803
317.429
317.302
317.086
316.726
317.414
317.286
317.094
316.776
317.403
317.284
317.07
316.719
317.397
317.275
317.085
316.773
317.472
317.336
317.12
316.768
317.45
317.315
317.12
316.807
317.469
317.333
317.121
316.771
317.445
317.31
317.117
316.807
317.461
317.326
317.122
316.782
317.44
317.304
317.113
316.808
317.447
317.312
317.119
316.8
317.431
317.296
317.11
316.813
317.427
317.291
317.109
316.818
317.4
317.265
317.081
316.853
317.333
317.199
317.012
316.799
317.4
317.265
317.082
316.855
317.333
317.198
317.011
316.799
317.399
317.263
317.08
316.852
317.332
317.196
317.009
316.797
317.397
317.261
317.079
316.853
317.33
317.193
317.007
316.795
317.394
317.256
317.078
316.853
317.327
317.188
317.002
316.792
317.372
317.237
317.06
316.838
317.312
317.174
316.991
316.781
317.385
317.248
317.069
316.846
317.322
317.183
316.998
316.788
317.356
317.225
317.048
316.827
317.295
317.161
316.98
316.772
317.337
317.211
317.037
316.818
317.274
317.146
316.968
316.762
316.181
315.751
315.389
315.097
314.875
316.153
315.729
315.369
315.077
314.855
316.181
315.751
315.389
315.097
314.875
316.154
315.73
315.369
315.078
314.856
316.183
315.751
315.389
315.098
314.875
316.167
315.742
315.382
315.091
314.869
316.149
315.727
315.368
315.078
314.856
316.144
315.724
315.367
315.077
314.856
316.18
315.749
315.388
315.097
314.874
316.156
315.717
315.355
315.064
314.843
316.179
315.744
315.382
315.091
314.868
316.153
315.712
315.35
315.059
314.837
316.173
315.745
315.385
315.094
314.872
316.147
315.709
315.349
315.058
314.837
316.169
315.743
315.384
315.094
314.872
316.14
315.703
315.344
315.054
314.833
316.18
315.742
315.379
315.087
314.864
316.15
315.706
315.342
315.051
314.828
316.178
315.74
315.377
315.085
314.863
316.149
315.705
315.341
315.05
314.828
316.174
315.735
315.372
315.08
314.858
316.146
315.701
315.338
315.047
314.824
316.161
315.719
315.357
315.065
314.843
316.136
315.692
315.33
315.039
314.817
316.141
315.698
315.336
315.045
314.824
315.3
315.223
315.289
315.211
315.265
315.184
315.226
315.147
315.163
315.094
315.001
314.912
315.073
314.996
314.938
314.84
314.882
314.782
314.319
313.331
312.543
311.952
311.565
314.341
313.343
312.544
311.95
311.556
314.309
313.324
312.538
311.949
311.562
314.328
313.333
312.539
311.943
311.551
314.289
313.31
312.528
311.941
311.556
314.309
313.32
312.529
311.936
311.546
314.258
313.289
312.512
311.929
311.546
314.28
313.3
312.516
311.926
311.536
314.214
313.259
312.491
311.912
311.531
314.243
313.276
312.498
311.912
311.524
314.107
313.185
312.436
311.869
311.494
314.126
313.197
312.441
311.868
311.488
314.161
313.224
312.465
311.892
311.513
314.19
313.241
312.473
311.893
311.508
314.055
313.146
312.406
311.845
311.473
314.066
313.151
312.407
311.841
311.465
314.005
313.106
312.375
311.82
311.451
314.01
313.106
312.372
311.814
311.441
317.104
317.004
317.077
317.182
317.323
317.264
317.324
317.257
317.22
317.151
317.221
317.161
316.033
316.052
316.098
316.171
316.269
316.388
316.026
316.044
316.087
316.156
316.246
316.352
315.987
315.918
316.008
315.941
316.059
316
316.142
316.095
316.253
316.217
316.382
316.343
316.516
316.637
316.741
316.828
316.892
316.94
316.465
316.575
316.674
316.758
316.822
316.868
316.118
316.151
316.146
316.1
316.015
316.137
316.17
316.165
316.119
316.035
316.183
316.217
316.212
316.167
316.082
316.257
316.292
316.287
316.242
316.158
316.357
316.393
316.389
316.345
316.26
316.477
316.515
316.513
316.47
316.386
316.111
316.145
316.139
316.094
316.009
316.129
316.163
316.157
316.112
316.027
316.173
316.207
316.202
316.157
316.073
316.242
316.277
316.273
316.228
316.144
316.334
316.37
316.367
316.323
316.238
316.441
316.479
316.478
316.435
316.351
316.071
316.105
316.099
316.053
315.969
316.002
316.035
316.029
315.984
315.9
316.092
316.126
316.12
316.075
315.99
316.026
316.059
316.053
316.008
315.924
316.144
316.178
316.173
316.128
316.043
316.085
316.119
316.113
316.068
315.984
316.228
316.263
316.258
316.214
316.129
316.181
316.216
316.211
316.167
316.082
316.34
316.376
316.373
316.329
316.244
316.305
316.341
316.337
316.294
316.209
316.471
316.509
316.507
316.464
316.38
316.433
316.471
316.469
316.427
316.343
316.608
316.648
316.649
316.608
316.524
316.732
316.777
316.781
316.743
316.66
316.842
316.892
316.901
316.866
316.784
316.935
316.992
317.007
316.977
316.898
317.008
317.071
317.093
317.067
316.99
317.06
317.128
317.152
317.129
317.053
316.557
316.597
316.598
316.557
316.473
316.67
316.714
316.717
316.679
316.595
316.773
316.821
316.828
316.792
316.71
316.861
316.913
316.925
316.892
316.812
316.93
316.987
317.002
316.972
316.893
316.978
317.037
317.054
317.025
316.946
316.043
316.08
316.145
316.238
316.356
316.494
316.036
316.072
316.135
316.222
316.33
316.453
315.997
315.928
316.037
315.973
316.109
316.052
316.212
316.169
316.344
316.313
316.496
316.465
316.641
316.774
316.88
316.951
316.978
316.971
316.579
316.696
316.791
316.857
316.89
316.892
316.128
316.161
316.155
316.11
316.025
316.165
316.199
316.193
316.148
316.062
316.231
316.265
316.259
316.214
316.128
316.324
316.358
316.353
316.308
316.222
316.443
316.479
316.474
316.429
316.344
316.583
316.62
316.617
316.573
316.487
316.121
316.154
316.148
316.103
316.018
316.157
316.191
316.185
316.14
316.055
316.22
316.254
316.249
316.204
316.118
316.308
316.343
316.338
316.293
316.207
316.417
316.453
316.449
316.404
316.319
316.542
316.579
316.576
316.532
316.446
316.081
316.114
316.109
316.063
315.978
316.012
316.045
316.039
315.994
315.91
316.122
316.155
316.15
316.104
316.019
316.057
316.09
316.084
316.039
315.955
316.194
316.228
316.222
316.177
316.092
316.137
316.171
316.165
316.12
316.035
316.298
316.333
316.327
316.282
316.197
316.255
316.289
316.284
316.239
316.154
316.431
316.466
316.462
316.417
316.331
316.4
316.435
316.431
316.386
316.301
316.584
316.621
316.618
316.574
316.488
316.554
316.591
316.588
316.543
316.458
316.732
316.771
316.77
316.727
316.641
316.868
316.911
316.912
316.871
316.786
316.979
317.026
317.031
316.993
316.91
317.056
317.109
317.121
317.087
317.006
317.092
317.152
317.171
317.142
317.063
317.091
317.157
317.18
317.155
317.079
316.67
316.709
316.708
316.666
316.58
316.79
316.832
316.833
316.792
316.708
316.889
316.935
316.94
316.901
316.818
316.959
317.01
317.019
316.984
316.902
316.997
317.052
317.065
317.033
316.953
317.002
317.06
317.076
317.047
316.968
316.985
316.999
316.791
316.641
316.634
316.598
316.735
317.076
317.034
317.056
316.935
316.946
316.969
316.872
316.854
316.797
317.084
317.071
316.963
316.952
317.017
316.997
316.915
316.895
316.763
316.761
316.875
316.875
317.037
317.034
317.084
317.041
317.026
317.073
316.926
316.806
316.953
317.174
317.268
317.306
317.297
317.24
317.14
317.22
317.253
317.237
317.165
316.885
316.926
316.927
316.886
316.8
316.732
316.771
316.769
316.726
316.64
316.726
316.765
316.764
316.721
316.636
316.689
316.727
316.725
316.681
316.596
316.827
316.868
316.868
316.825
316.74
317.242
317.327
317.361
317.348
317.29
317.195
317.276
317.306
317.289
317.226
317.179
317.247
317.271
317.247
317.171
317.08
317.151
317.175
317.152
317.08
317.05
317.103
317.113
317.079
316.997
317.081
317.141
317.158
317.129
317.05
316.972
317.02
317.027
316.99
316.906
316.956
317.006
317.015
316.979
316.897
316.895
316.941
316.947
316.909
316.826
317.248
317.331
317.363
317.349
317.289
317.188
317.251
317.272
317.245
317.167
317.066
317.116
317.125
317.09
317.007
317.052
317.1
317.107
317.07
316.987
317.123
317.177
317.189
317.156
317.074
317.101
317.152
317.162
317.126
317.044
317.013
317.059
317.065
317.026
316.942
316.992
317.037
317.041
317.002
316.917
316.858
316.901
316.903
316.863
316.778
316.855
316.896
316.897
316.856
316.77
316.973
317.019
317.024
316.986
316.902
316.971
317.016
317.02
316.98
316.896
317.214
317.301
317.337
317.325
317.266
317.163
317.235
317.262
317.241
317.166
317.225
317.3
317.329
317.312
317.245
317.155
317.216
317.235
317.207
317.128
317.133
317.188
317.201
317.168
317.087
317.191
317.255
317.277
317.251
317.174
317.024
317.071
317.076
317.038
316.954
316.9
316.942
316.944
316.903
316.818
317.053
317.102
317.108
317.071
316.988
316.909
316.99
317.023
317.011
316.957
316.852
316.973
316.966
317.116
317.119
316.959
316.946
317.111
317.104
316.819
316.658
316.818
316.673
316.803
316.81
316.699
316.977
316.97
317.122
317.126
316.962
316.949
317.116
317.106
316.811
316.641
316.81
316.66
316.796
316.808
316.688
316.975
316.967
317.123
317.128
316.959
316.945
317.115
317.105
316.803
316.598
316.802
316.623
316.788
316.8
316.657
316.946
316.938
317.097
317.102
316.929
316.913
317.089
317.077
316.763
316.546
316.763
316.573
316.751
316.766
316.614
316.894
316.886
317.044
317.049
316.877
316.858
317.036
317.024
316.709
316.507
316.711
316.528
316.701
316.712
316.568
316.8
316.793
316.947
316.952
316.785
316.77
316.939
316.929
316.626
316.439
316.629
316.459
316.621
316.633
316.499
317.346
317.347
317.244
317.244
317.344
317.342
317.241
317.237
317.42
317.476
317.417
317.468
317.415
317.405
317.45
317.354
317.353
317.25
317.252
317.348
317.343
317.246
317.241
317.431
317.477
317.425
317.466
317.419
317.406
317.447
317.357
317.354
317.253
317.256
317.347
317.34
317.246
317.239
317.426
317.456
317.418
317.446
317.409
317.395
317.429
317.331
317.327
317.227
317.231
317.318
317.309
317.219
317.212
317.393
317.407
317.384
317.398
317.372
317.355
317.382
317.275
317.271
317.173
317.177
317.26
317.247
317.165
317.156
317.33
317.336
317.321
317.329
317.307
317.289
317.316
317.173
317.169
317.073
317.077
317.158
317.146
317.065
317.057
317.227
317.243
317.218
317.235
317.207
317.191
317.222
316.113
316.139
316.189
316.231
316.299
316.342
316.451
316.486
316.421
316.461
316.301
316.342
316.214
316.253
316.144
316.172
316.333
316.387
316.406
316.481
316.517
316.587
316.584
316.673
316.018
315.862
316.046
315.9
316.09
315.939
316.135
315.993
316.246
316.162
316.323
316.217
316.032
316.121
316.496
316.63
316.57
316.67
316.665
316.778
316.752
316.838
316.338
316.477
316.418
316.523
316.211
316.346
315.682
315.575
315.756
315.645
315.76
315.626
315.848
315.725
315.871
315.689
316.007
315.838
316.112
315.945
316.233
316.063
316.373
316.398
316.489
316.501
316.618
316.649
316.711
316.742
316.276
316.245
316.14
316.135
316.588
316.588
316.677
316.66
316.794
316.82
316.873
316.887
316.388
316.337
316.488
316.411
316.068
315.864
315.991
315.763
315.921
315.713
315.876
315.639
316.189
315.991
316.086
315.863
316.297
316.102
316.161
315.941
315.427
315.193
315.389
315.157
315.5
315.282
315.429
315.208
315.619
315.451
315.495
315.312
316.209
316.498
315.947
315.75
315.537
316.457
316.152
315.84
315.629
315.399
316.532
316.261
315.997
315.749
315.506
314.976
314.87
314.86
314.766
315.089
314.966
314.936
314.833
315.279
315.141
315.062
314.94
316.389
316.277
316.056
315.904
315.749
315.591
315.504
315.348
315.182
315.026
316.482
316.391
316.177
316.019
315.892
315.712
315.609
315.415
315.253
315.05
316.32
316.143
316.448
316.291
316.619
316.566
316.734
316.703
316.146
315.938
316.02
315.8
316.557
316.399
316.628
316.477
316.826
316.798
316.893
316.872
316.259
316.048
316.331
316.124
315.802
315.551
315.378
315.075
315.701
315.438
315.31
315.013
315.895
315.652
315.443
315.145
315.983
315.738
315.534
315.253
314.836
314.789
314.703
314.816
314.796
314.717
314.909
314.851
314.758
314.87
314.846
314.76
315.053
314.976
314.872
314.951
314.913
314.817
316.139
315.983
315.816
315.742
315.605
315.458
315.441
315.323
315.195
315.226
315.126
315.004
315.015
314.963
314.85
316.263
316.087
315.899
315.809
315.625
315.439
315.499
315.337
315.17
315.249
315.126
314.98
315.019
314.951
314.82
316.846
316.902
316.896
316.969
316.698
316.767
316.756
316.842
316.873
316.989
316.887
316.995
316.909
317.012
316.934
317.031
317.014
316.965
317.045
316.988
317.034
317.074
317.027
317.093
316.912
316.986
317.047
317.11
317.091
317.152
317.098
317.16
317.107
317.211
317.087
317.184
317.123
317.23
317.119
317.217
317.138
317.254
317.165
317.271
317.186
317.279
317.239
317.316
316.977
317.027
317.043
317.098
316.821
316.864
316.898
316.945
317.144
317.21
317.086
317.147
317.107
317.16
317.171
317.215
316.971
317.014
317.041
317.075
317.2
317.264
317.259
317.313
317.229
317.32
317.283
317.337
317.182
317.281
317.228
317.291
317.275
317.356
317.331
317.377
317.326
317.393
317.374
317.412
317.103
317.052
317.2
317.147
317.105
317.051
317.208
317.152
317.107
317.058
317.22
317.17
316.928
316.743
317.044
317.136
317.234
316.706
316.888
316.996
317.086
317.19
316.779
316.959
317.088
317.175
317.246
316.964
316.842
317.058
316.94
316.971
316.855
317.072
316.959
316.989
316.879
317.1
316.994
316.656
316.562
316.849
316.754
316.96
316.862
317.045
316.945
317.142
317.042
316.747
316.692
316.932
316.876
317.057
316.99
317.138
317.056
317.199
317.099
317.037
317.016
317.11
317.109
316.869
316.854
316.957
316.967
317.208
317.182
317.145
317.103
317.166
317.181
317.221
317.241
317.025
317.05
317.086
317.118
317.259
317.247
317.308
317.3
317.269
317.216
317.297
317.215
317.211
317.144
317.252
317.159
317.316
317.276
317.336
317.264
317.356
317.321
317.371
317.308
316.677
316.514
316.361
316.737
316.553
316.399
316.701
316.535
316.378
316.764
316.578
316.418
316.734
316.572
316.412
316.808
316.613
316.442
316.437
316.28
316.111
316.625
316.462
316.29
316.731
316.561
316.385
316.806
316.636
316.465
316.855
316.65
316.463
316.591
316.421
316.23
316.77
316.596
316.403
316.869
316.684
316.485
316.913
316.719
316.518
316.902
316.687
316.481
317.254
317.184
316.999
316.659
317.223
317.148
316.957
316.614
317.268
317.195
317.01
316.667
317.249
317.169
316.976
316.632
317.286
317.209
317.031
316.698
317.294
317.207
317.017
316.677
317.289
317.192
316.988
316.64
317.309
317.201
316.989
316.638
317.328
317.235
317.05
316.712
317.322
317.223
317.053
316.749
317.298
317.215
317.047
316.735
317.289
317.2
317.042
316.756
317.352
317.25
317.049
316.7
317.351
317.243
317.062
316.751
317.377
317.265
317.058
316.709
317.376
317.26
317.074
316.765
317.249
317.187
317.018
316.698
317.206
317.153
317.01
316.73
317.253
317.189
317.023
316.705
317.208
317.153
317.01
316.733
317.259
317.19
317.029
316.721
317.217
317.156
317.013
316.739
317.26
317.186
317.033
316.743
317.226
317.158
317.017
316.751
317.256
317.176
317.03
316.764
317.139
317.095
316.966
316.766
317.064
317.025
316.894
316.706
317.147
317.099
316.969
316.77
317.072
317.029
316.896
316.707
317.162
317.107
316.974
316.773
317.087
317.037
316.899
316.711
317.184
317.12
316.983
316.781
317.108
317.047
316.906
316.716
317.213
317.136
316.994
316.79
317.132
317.06
316.913
316.72
317.268
317.167
317.009
316.797
317.195
317.096
316.935
316.736
317.241
317.151
317.001
316.793
317.164
317.077
316.924
316.728
317.292
317.181
317.017
316.801
317.224
317.113
316.946
316.744
317.315
317.196
317.027
316.809
317.25
317.13
316.957
316.753
316.144
315.729
315.375
315.088
314.867
316.117
315.707
315.354
315.068
314.847
316.147
315.73
315.376
315.089
314.868
316.123
315.711
315.358
315.07
314.85
316.153
315.733
315.378
315.09
314.869
316.142
315.727
315.372
315.085
314.864
316.132
315.716
315.361
315.073
314.852
316.138
315.72
315.364
315.076
314.854
316.157
315.735
315.379
315.091
314.87
316.136
315.704
315.348
315.059
314.839
316.152
315.728
315.372
315.084
314.863
316.129
315.697
315.341
315.053
314.833
316.157
315.735
315.379
315.09
314.868
316.133
315.701
315.343
315.055
314.834
316.164
315.739
315.382
315.092
314.871
316.135
315.701
315.342
315.053
314.832
316.141
315.719
315.365
315.078
314.857
316.111
315.683
315.328
315.041
314.821
316.142
315.718
315.363
315.076
314.855
316.111
315.682
315.327
315.04
314.82
316.141
315.715
315.36
315.072
314.851
316.111
315.68
315.325
315.038
314.818
316.132
315.702
315.346
315.058
314.837
316.106
315.674
315.318
315.031
314.811
316.114
315.682
315.326
315.039
314.818
314.37
314.303
314.402
314.333
314.457
314.381
314.528
314.439
314.599
314.495
314.711
314.592
314.654
314.537
314.767
314.652
314.825
314.721
313.643
312.85
312.185
311.67
311.32
313.655
312.857
312.184
311.666
311.31
313.658
312.858
312.19
311.674
311.323
313.668
312.862
312.189
311.667
311.312
313.685
312.873
312.2
311.681
311.329
313.694
312.877
312.199
311.674
311.318
313.723
312.895
312.215
311.692
311.338
313.729
312.897
312.212
311.684
311.326
313.766
312.923
312.235
311.707
311.351
313.766
312.921
312.229
311.697
311.337
313.861
312.993
312.286
311.748
311.387
313.851
312.983