/*--------------------------------*- C++ -*----------------------------------*\
  =========                 |
  \\      /  F ield         | OpenFOAM: The Open Source CFD Toolbox
   \\    /   O peration     | Website:  https://openfoam.org
    \\  /    A nd           | Version:  12
     \\/     M anipulation  |
\*---------------------------------------------------------------------------*/
FoamFile
{
    format      ascii;
    class       volScalarField;
    location    "40";
    object      p;
}
// * * * * * * * * * * * * * * * * * * * * * * * * * * * * * * * * * * * * * //

dimensions      [0 2 -2 0 0 0 0];

internalField   nonuniform List<scalar> 
4480
(
0.0109495
0.0109515
0.0109558
0.0109618
0.0109693
0.0109779
0.010987
0.010996
0.0110041
0.0110105
0.0110142
0.0110144
0.0110102
0.0110009
0.0109862
0.0109659
0.0109401
0.0109093
0.0108742
0.0108355
0.0107942
0.0107513
0.0107077
0.0106643
0.0106218
0.0105808
0.0105418
0.0105052
0.0104713
0.0104402
0.0104118
0.0103861
0.010363
0.0103423
0.0103239
0.0103075
0.010293
0.0102801
0.0102688
0.0102588
0.01025
0.0102423
0.0102354
0.0102293
0.010224
0.0102192
0.010215
0.0102112
0.0102078
0.0102048
0.010202
0.0101995
0.0101973
0.0101952
0.0101933
0.0101916
0.0101899
0.0101884
0.0101869
0.0101855
0.0101842
0.0101829
0.0101816
0.0101804
0.0101792
0.010178
0.0101768
0.0101756
0.0101744
0.0101731
0.0101719
0.0101706
0.0101694
0.0101681
0.0101668
0.0101654
0.0101641
0.0101627
0.0101613
0.0101599
0.0101584
0.010157
0.0101555
0.0101539
0.0101524
0.0101508
0.0101492
0.0101476
0.0101459
0.0101442
0.0101425
0.0101407
0.0101389
0.0101371
0.0101352
0.0101332
0.0101313
0.0101292
0.0101271
0.0101249
0.0101227
0.0101203
0.0101179
0.0101153
0.0101126
0.0101098
0.0101068
0.0101036
0.0101001
0.0100964
0.0100924
0.0100881
0.0100833
0.010078
0.0100721
0.0100656
0.0100583
0.0100504
0.0100423
0.0100353
0.0100311
0.010032
0.0100628
0.0102606
0.0108249
0.0105119
0.00444709
0.00383357
0.00397689
0.00480521
0.0111682
0.0113552
0.0106676
0.0103949
0.0103108
0.0102666
0.0102348
0.0102121
0.0101931
0.0101683
0.0109474
0.0109489
0.0109514
0.0109549
0.0109592
0.010964
0.0109689
0.0109734
0.010977
0.0109789
0.0109785
0.0109751
0.010968
0.0109568
0.0109411
0.0109208
0.0108961
0.0108673
0.0108351
0.0108
0.0107628
0.0107245
0.0106856
0.0106471
0.0106094
0.010573
0.0105384
0.0105058
0.0104756
0.0104477
0.0104222
0.0103989
0.0103779
0.0103588
0.0103416
0.0103261
0.0103122
0.0102997
0.0102884
0.0102782
0.0102691
0.0102608
0.0102533
0.0102465
0.0102403
0.0102346
0.0102295
0.0102248
0.0102205
0.0102166
0.0102129
0.0102096
0.0102065
0.0102036
0.010201
0.0101985
0.0101962
0.0101941
0.010192
0.0101901
0.0101883
0.0101866
0.0101849
0.0101833
0.0101817
0.0101802
0.0101787
0.0101773
0.0101758
0.0101744
0.010173
0.0101715
0.0101701
0.0101687
0.0101673
0.0101658
0.0101644
0.0101629
0.0101614
0.0101599
0.0101584
0.0101568
0.0101552
0.0101536
0.010152
0.0101503
0.0101487
0.0101469
0.0101452
0.0101434
0.0101416
0.0101397
0.0101378
0.0101358
0.0101337
0.0101316
0.0101294
0.0101272
0.0101248
0.0101224
0.0101198
0.0101171
0.0101142
0.0101112
0.0101079
0.0101045
0.0101007
0.0100967
0.0100922
0.0100874
0.010082
0.0100759
0.0100692
0.0100615
0.0100527
0.0100425
0.0100307
0.0100167
0.00999995
0.00997942
0.00995246
0.00991232
0.00984846
0.00975057
0.00953328
0.00870981
0.0070567
0.00676889
0.00693925
0.00748115
0.00921843
0.00997285
0.0101186
0.0101639
0.0101849
0.0101875
0.010182
0.010175
0.0101661
0.0101427
0.0109437
0.0109457
0.010948
0.0109511
0.0109549
0.0109591
0.0109634
0.0109673
0.0109703
0.0109716
0.0109707
0.0109667
0.0109592
0.0109475
0.0109314
0.0109109
0.010886
0.0108571
0.0108249
0.0107899
0.0107531
0.0107151
0.0106768
0.0106389
0.010602
0.0105665
0.0105328
0.0105012
0.0104719
0.0104449
0.0104203
0.0103979
0.0103776
0.0103593
0.0103427
0.0103278
0.0103144
0.0103022
0.0102912
0.0102813
0.0102723
0.0102641
0.0102567
0.0102498
0.0102436
0.0102379
0.0102327
0.0102278
0.0102234
0.0102193
0.0102155
0.010212
0.0102087
0.0102057
0.0102029
0.0102003
0.0101978
0.0101955
0.0101934
0.0101913
0.0101894
0.0101875
0.0101858
0.0101841
0.0101824
0.0101808
0.0101793
0.0101777
0.0101762
0.0101748
0.0101733
0.0101718
0.0101704
0.0101689
0.0101674
0.010166
0.0101645
0.010163
0.0101615
0.0101599
0.0101584
0.0101568
0.0101552
0.0101536
0.0101519
0.0101503
0.0101486
0.0101468
0.0101451
0.0101432
0.0101414
0.0101395
0.0101375
0.0101355
0.0101334
0.0101313
0.0101291
0.0101267
0.0101243
0.0101218
0.0101192
0.0101164
0.0101134
0.0101103
0.0101069
0.0101033
0.0100994
0.0100952
0.0100905
0.0100854
0.0100798
0.0100734
0.0100662
0.010058
0.0100486
0.0100375
0.0100245
0.0100087
0.00998907
0.00996389
0.00992975
0.00988012
0.00980281
0.00967411
0.00943405
0.00895759
0.00831811
0.00814165
0.00826646
0.0086232
0.00932156
0.00978622
0.00999492
0.0100896
0.0101337
0.0101519
0.0101575
0.0101577
0.0101525
0.0101258
0.0109392
0.0109417
0.010944
0.010947
0.0109507
0.010955
0.0109593
0.0109632
0.0109661
0.0109674
0.0109663
0.0109622
0.0109543
0.0109422
0.0109256
0.0109043
0.0108787
0.0108491
0.0108161
0.0107806
0.0107432
0.0107049
0.0106665
0.0106287
0.010592
0.0105569
0.0105239
0.010493
0.0104645
0.0104384
0.0104146
0.0103931
0.0103736
0.0103561
0.0103403
0.010326
0.0103132
0.0103016
0.0102911
0.0102816
0.010273
0.0102651
0.0102578
0.0102512
0.0102451
0.0102394
0.0102342
0.0102294
0.010225
0.0102208
0.010217
0.0102134
0.0102101
0.010207
0.0102041
0.0102014
0.0101989
0.0101965
0.0101943
0.0101922
0.0101901
0.0101882
0.0101864
0.0101846
0.0101829
0.0101813
0.0101797
0.0101781
0.0101766
0.0101751
0.0101736
0.0101721
0.0101706
0.0101691
0.0101676
0.0101661
0.0101646
0.0101631
0.0101616
0.01016
0.0101584
0.0101569
0.0101552
0.0101536
0.010152
0.0101503
0.0101486
0.0101468
0.010145
0.0101432
0.0101413
0.0101394
0.0101374
0.0101354
0.0101333
0.0101311
0.0101289
0.0101266
0.0101241
0.0101216
0.0101189
0.0101161
0.0101131
0.0101099
0.0101065
0.0101029
0.0100989
0.0100946
0.0100899
0.0100848
0.010079
0.0100726
0.0100653
0.0100569
0.0100473
0.010036
0.0100226
0.0100063
0.00998609
0.00996011
0.00992555
0.0098777
0.00980899
0.00970695
0.00954825
0.00929838
0.00899874
0.0089069
0.00899846
0.00922376
0.00957488
0.00983416
0.0099815
0.010063
0.0101076
0.0101305
0.0101409
0.0101447
0.0101417
0.010113
0.010934
0.0109367
0.010939
0.010942
0.0109457
0.01095
0.0109543
0.0109583
0.0109613
0.0109625
0.0109613
0.0109568
0.0109484
0.0109356
0.0109181
0.0108958
0.010869
0.0108383
0.0108042
0.0107677
0.0107296
0.0106909
0.0106522
0.0106143
0.0105779
0.0105434
0.0105111
0.0104811
0.0104536
0.0104286
0.010406
0.0103856
0.0103672
0.0103507
0.010336
0.0103227
0.0103107
0.0102999
0.0102901
0.0102811
0.010273
0.0102655
0.0102586
0.0102522
0.0102463
0.0102408
0.0102357
0.0102309
0.0102265
0.0102224
0.0102185
0.0102149
0.0102115
0.0102084
0.0102054
0.0102026
0.0102
0.0101976
0.0101953
0.0101931
0.010191
0.010189
0.0101871
0.0101853
0.0101835
0.0101818
0.0101802
0.0101786
0.010177
0.0101754
0.0101739
0.0101724
0.0101708
0.0101693
0.0101678
0.0101663
0.0101648
0.0101632
0.0101617
0.0101601
0.0101585
0.0101569
0.0101553
0.0101537
0.010152
0.0101503
0.0101486
0.0101468
0.010145
0.0101432
0.0101413
0.0101394
0.0101374
0.0101353
0.0101332
0.010131
0.0101288
0.0101264
0.010124
0.0101214
0.0101187
0.0101159
0.0101129
0.0101097
0.0101063
0.0101026
0.0100986
0.0100943
0.0100896
0.0100844
0.0100787
0.0100722
0.0100649
0.0100566
0.0100471
0.0100359
0.0100226
0.0100067
0.00998699
0.00996226
0.00993037
0.00988831
0.00983197
0.00975613
0.00965373
0.00951858
0.00937892
0.00934104
0.00940852
0.00954852
0.00973281
0.00988455
0.00998658
0.010052
0.0100924
0.0101158
0.010128
0.0101338
0.0101322
0.0101038
0.0109283
0.0109308
0.010933
0.0109361
0.01094
0.0109444
0.010949
0.0109532
0.0109563
0.0109575
0.0109562
0.0109513
0.0109422
0.0109284
0.0109096
0.0108859
0.0108575
0.0108252
0.0107896
0.0107517
0.0107125
0.0106729
0.0106338
0.0105959
0.0105597
0.0105257
0.0104942
0.0104653
0.010439
0.0104153
0.0103939
0.0103749
0.0103579
0.0103427
0.0103292
0.0103171
0.0103062
0.0102963
0.0102874
0.0102792
0.0102717
0.0102648
0.0102584
0.0102524
0.0102468
0.0102416
0.0102367
0.0102321
0.0102277
0.0102236
0.0102198
0.0102162
0.0102128
0.0102096
0.0102066
0.0102038
0.0102011
0.0101986
0.0101962
0.010194
0.0101918
0.0101898
0.0101878
0.0101859
0.0101841
0.0101824
0.0101807
0.010179
0.0101774
0.0101758
0.0101742
0.0101727
0.0101711
0.0101696
0.010168
0.0101665
0.010165
0.0101634
0.0101618
0.0101603
0.0101587
0.010157
0.0101554
0.0101538
0.0101521
0.0101504
0.0101486
0.0101469
0.010145
0.0101432
0.0101413
0.0101394
0.0101374
0.0101353
0.0101332
0.0101311
0.0101288
0.0101264
0.010124
0.0101214
0.0101187
0.0101159
0.0101129
0.0101097
0.0101063
0.0101027
0.0100988
0.0100945
0.0100898
0.0100847
0.010079
0.0100727
0.0100656
0.0100576
0.0100483
0.0100376
0.010025
0.0100101
0.00999202
0.00996987
0.00994233
0.00990771
0.00986413
0.00980993
0.00974436
0.00967024
0.00960628
0.00959512
0.00964322
0.00973266
0.00983686
0.00992972
0.010001
0.0100518
0.0100859
0.0101072
0.0101194
0.0101258
0.0101251
0.010099
0.0109219
0.0109239
0.0109262
0.0109294
0.0109336
0.0109383
0.0109432
0.0109478
0.0109511
0.0109525
0.010951
0.0109456
0.0109356
0.0109205
0.0109
0.0108744
0.0108439
0.0108094
0.0107718
0.0107322
0.0106915
0.0106509
0.0106111
0.0105729
0.010537
0.0105036
0.010473
0.0104453
0.0104203
0.0103981
0.0103784
0.0103609
0.0103455
0.0103319
0.0103198
0.0103091
0.0102995
0.0102908
0.0102829
0.0102757
0.0102691
0.0102629
0.0102571
0.0102516
0.0102465
0.0102416
0.010237
0.0102326
0.0102285
0.0102245
0.0102208
0.0102172
0.0102139
0.0102107
0.0102077
0.0102048
0.0102021
0.0101996
0.0101971
0.0101948
0.0101926
0.0101905
0.0101885
0.0101866
0.0101847
0.0101829
0.0101812
0.0101795
0.0101778
0.0101762
0.0101746
0.010173
0.0101714
0.0101699
0.0101683
0.0101667
0.0101652
0.0101636
0.010162
0.0101604
0.0101588
0.0101572
0.0101556
0.0101539
0.0101522
0.0101505
0.0101487
0.010147
0.0101452
0.0101433
0.0101414
0.0101395
0.0101375
0.0101355
0.0101334
0.0101312
0.0101289
0.0101266
0.0101242
0.0101216
0.010119
0.0101162
0.0101132
0.0101101
0.0101067
0.0101032
0.0100993
0.0100952
0.0100906
0.0100857
0.0100802
0.0100742
0.0100674
0.0100598
0.0100512
0.0100412
0.0100298
0.0100163
0.0100005
0.00998158
0.00995896
0.00993186
0.00989972
0.00986256
0.00982171
0.00978135
0.00975248
0.00975292
0.00978676
0.00984559
0.0099114
0.00997073
0.0100202
0.0100583
0.0100857
0.0101038
0.0101149
0.0101211
0.010121
0.0100987
0.010915
0.010916
0.0109183
0.0109217
0.0109262
0.0109314
0.0109368
0.0109418
0.0109456
0.0109471
0.0109454
0.0109393
0.0109282
0.0109114
0.0108888
0.0108606
0.0108275
0.0107903
0.0107503
0.0107084
0.010666
0.0106241
0.0105835
0.0105451
0.0105094
0.0104767
0.0104473
0.010421
0.0103977
0.0103772
0.0103592
0.0103436
0.0103301
0.0103182
0.0103079
0.0102988
0.0102907
0.0102835
0.0102769
0.0102708
0.0102652
0.0102599
0.0102548
0.01025
0.0102454
0.010241
0.0102368
0.0102327
0.0102288
0.010225
0.0102214
0.010218
0.0102147
0.0102116
0.0102086
0.0102057
0.010203
0.0102004
0.010198
0.0101957
0.0101934
0.0101913
0.0101892
0.0101873
0.0101854
0.0101835
0.0101817
0.01018
0.0101783
0.0101766
0.010175
0.0101734
0.0101718
0.0101702
0.0101686
0.010167
0.0101654
0.0101639
0.0101623
0.0101606
0.010159
0.0101574
0.0101557
0.0101541
0.0101524
0.0101507
0.0101489
0.0101471
0.0101453
0.0101435
0.0101416
0.0101397
0.0101377
0.0101357
0.0101336
0.0101314
0.0101292
0.0101269
0.0101245
0.010122
0.0101194
0.0101167
0.0101138
0.0101107
0.0101075
0.010104
0.0101003
0.0100963
0.010092
0.0100873
0.0100822
0.0100765
0.0100702
0.0100632
0.0100553
0.0100464
0.0100363
0.0100246
0.0100112
0.00999573
0.00997786
0.00995744
0.00993455
0.00990988
0.00988511
0.00986361
0.00985149
0.00985664
0.00988098
0.00992029
0.00996497
0.0100055
0.0100401
0.0100682
0.0100895
0.0101044
0.0101139
0.0101194
0.0101197
0.0101021
0.0109073
0.0109068
0.0109091
0.0109128
0.0109177
0.0109234
0.0109295
0.0109351
0.0109393
0.010941
0.010939
0.0109321
0.0109195
0.0109005
0.0108753
0.010844
0.0108077
0.0107673
0.0107243
0.0106799
0.0106354
0.0105921
0.0105508
0.0105122
0.0104769
0.0104452
0.010417
0.0103924
0.010371
0.0103525
0.0103367
0.0103232
0.0103118
0.010302
0.0102937
0.0102864
0.0102801
0.0102744
0.0102693
0.0102645
0.0102601
0.0102558
0.0102517
0.0102476
0.0102437
0.0102399
0.0102361
0.0102324
0.0102288
0.0102253
0.0102219
0.0102186
0.0102154
0.0102123
0.0102094
0.0102066
0.0102039
0.0102013
0.0101988
0.0101965
0.0101942
0.010192
0.01019
0.010188
0.010186
0.0101841
0.0101823
0.0101806
0.0101788
0.0101771
0.0101755
0.0101738
0.0101722
0.0101706
0.0101689
0.0101673
0.0101657
0.0101641
0.0101625
0.0101609
0.0101593
0.0101576
0.010156
0.0101543
0.0101526
0.0101509
0.0101491
0.0101474
0.0101456
0.0101437
0.0101419
0.01014
0.010138
0.010136
0.0101339
0.0101318
0.0101296
0.0101274
0.010125
0.0101226
0.0101201
0.0101174
0.0101146
0.0101117
0.0101086
0.0101053
0.0101017
0.010098
0.0100939
0.0100895
0.0100848
0.0100796
0.0100739
0.0100676
0.0100606
0.0100528
0.0100441
0.0100343
0.0100233
0.010011
0.0099974
0.00998248
0.00996667
0.00995077
0.00993622
0.00992533
0.00992148
0.00992825
0.00994635
0.00997334
0.0100043
0.0100335
0.0100587
0.0100794
0.0100958
0.0101077
0.0101156
0.0101204
0.0101211
0.0101084
0.0108986
0.0108962
0.0108984
0.0109025
0.0109078
0.0109142
0.010921
0.0109273
0.0109321
0.010934
0.0109316
0.0109236
0.0109091
0.0108876
0.010859
0.0108241
0.0107839
0.0107398
0.0106933
0.010646
0.0105994
0.0105546
0.0105126
0.0104741
0.0104394
0.0104089
0.0103824
0.0103598
0.0103406
0.0103244
0.010311
0.0103
0.0102909
0.0102835
0.0102773
0.0102722
0.0102678
0.0102639
0.0102604
0.0102571
0.0102539
0.0102508
0.0102477
0.0102445
0.0102414
0.0102382
0.0102349
0.0102317
0.0102285
0.0102253
0.0102221
0.010219
0.010216
0.010213
0.0102102
0.0102074
0.0102047
0.0102021
0.0101997
0.0101973
0.010195
0.0101928
0.0101907
0.0101887
0.0101867
0.0101848
0.0101829
0.0101811
0.0101794
0.0101776
0.0101759
0.0101743
0.0101726
0.010171
0.0101693
0.0101677
0.0101661
0.0101645
0.0101628
0.0101612
0.0101596
0.0101579
0.0101562
0.0101546
0.0101529
0.0101512
0.0101494
0.0101477
0.0101459
0.0101441
0.0101422
0.0101403
0.0101384
0.0101364
0.0101344
0.0101323
0.0101302
0.010128
0.0101257
0.0101234
0.0101209
0.0101183
0.0101157
0.0101129
0.0101099
0.0101068
0.0101035
0.0101
0.0100963
0.0100923
0.010088
0.0100833
0.0100782
0.0100727
0.0100666
0.01006
0.0100528
0.0100448
0.0100361
0.0100266
0.0100165
0.010006
0.00999545
0.00998558
0.00997748
0.00997265
0.00997291
0.0099799
0.00999378
0.010013
0.0100348
0.0100562
0.0100752
0.010091
0.0101036
0.010113
0.0101196
0.0101237
0.0101246
0.0101168
0.0108885
0.0108837
0.0108859
0.0108904
0.0108963
0.0109033
0.0109109
0.0109181
0.0109235
0.0109256
0.0109228
0.0109135
0.0108967
0.010872
0.0108395
0.0108002
0.0107555
0.0107071
0.0106568
0.0106065
0.0105576
0.0105114
0.0104689
0.0104306
0.010397
0.010368
0.0103436
0.0103233
0.0103067
0.0102932
0.0102825
0.0102742
0.0102678
0.0102629
0.0102592
0.0102563
0.0102541
0.0102521
0.0102504
0.0102487
0.0102469
0.0102451
0.0102431
0.0102409
0.0102386
0.0102361
0.0102334
0.0102307
0.0102279
0.0102251
0.0102222
0.0102193
0.0102164
0.0102136
0.0102108
0.0102081
0.0102055
0.010203
0.0102005
0.0101981
0.0101958
0.0101936
0.0101915
0.0101894
0.0101874
0.0101855
0.0101836
0.0101817
0.0101799
0.0101782
0.0101764
0.0101747
0.0101731
0.0101714
0.0101697
0.0101681
0.0101665
0.0101648
0.0101632
0.0101615
0.0101599
0.0101582
0.0101566
0.0101549
0.0101532
0.0101515
0.0101498
0.010148
0.0101462
0.0101444
0.0101426
0.0101407
0.0101389
0.0101369
0.0101349
0.0101329
0.0101309
0.0101287
0.0101265
0.0101243
0.0101219
0.0101195
0.010117
0.0101143
0.0101116
0.0101087
0.0101057
0.0101025
0.0100991
0.0100954
0.0100916
0.0100875
0.0100831
0.0100784
0.0100733
0.0100678
0.0100619
0.0100556
0.0100489
0.0100419
0.0100347
0.0100276
0.0100209
0.0100151
0.0100111
0.0100097
0.010012
0.0100187
0.0100296
0.0100438
0.0100597
0.0100755
0.0100899
0.0101023
0.0101122
0.0101198
0.0101252
0.0101287
0.01013
0.0101264
0.0108766
0.0108689
0.010871
0.0108762
0.0108828
0.0108905
0.0108989
0.0109071
0.0109133
0.0109156
0.0109122
0.0109014
0.0108819
0.0108534
0.0108163
0.0107719
0.0107221
0.0106689
0.0106145
0.0105609
0.0105098
0.0104624
0.0104197
0.0103821
0.0103498
0.0103229
0.010301
0.0102835
0.0102698
0.0102593
0.0102517
0.0102463
0.0102428
0.0102408
0.0102397
0.0102392
0.0102392
0.0102394
0.0102395
0.0102395
0.0102393
0.0102387
0.0102379
0.0102368
0.0102354
0.0102336
0.0102317
0.0102295
0.0102272
0.0102247
0.0102221
0.0102195
0.0102168
0.0102141
0.0102115
0.0102089
0.0102063
0.0102038
0.0102014
0.010199
0.0101967
0.0101945
0.0101923
0.0101902
0.0101882
0.0101862
0.0101843
0.0101824
0.0101806
0.0101788
0.010177
0.0101753
0.0101736
0.0101719
0.0101702
0.0101685
0.0101669
0.0101652
0.0101636
0.0101619
0.0101603
0.0101586
0.0101569
0.0101552
0.0101536
0.0101519
0.0101501
0.0101484
0.0101467
0.0101449
0.0101431
0.0101413
0.0101394
0.0101375
0.0101356
0.0101336
0.0101316
0.0101296
0.0101275
0.0101253
0.0101231
0.0101208
0.0101185
0.010116
0.0101135
0.0101108
0.0101081
0.0101052
0.0101021
0.010099
0.0100956
0.0100921
0.0100883
0.0100844
0.0100802
0.0100758
0.0100712
0.0100664
0.0100615
0.0100565
0.0100516
0.0100471
0.0100431
0.0100402
0.0100388
0.0100394
0.0100427
0.0100488
0.0100576
0.0100685
0.0100805
0.0100924
0.0101034
0.0101131
0.0101211
0.0101274
0.0101319
0.010135
0.0101366
0.0101368
0.0108625
0.0108513
0.0108534
0.0108593
0.0108668
0.0108754
0.0108846
0.0108937
0.0109008
0.0109036
0.0108996
0.0108869
0.0108642
0.0108313
0.0107889
0.0107387
0.0106831
0.0106247
0.010566
0.0105092
0.010456
0.0104077
0.0103652
0.0103288
0.0102985
0.0102741
0.0102552
0.0102408
0.0102304
0.0102233
0.010219
0.0102169
0.0102165
0.0102174
0.0102191
0.0102213
0.0102236
0.0102259
0.010228
0.0102298
0.0102311
0.010232
0.0102324
0.0102324
0.0102319
0.010231
0.0102297
0.0102281
0.0102263
0.0102242
0.010222
0.0102196
0.0102171
0.0102146
0.0102121
0.0102096
0.0102071
0.0102046
0.0102022
0.0101999
0.0101976
0.0101953
0.0101931
0.010191
0.010189
0.0101869
0.010185
0.0101831
0.0101812
0.0101794
0.0101776
0.0101758
0.0101741
0.0101724
0.0101707
0.010169
0.0101673
0.0101656
0.010164
0.0101623
0.0101607
0.010159
0.0101573
0.0101556
0.010154
0.0101523
0.0101506
0.0101488
0.0101471
0.0101454
0.0101436
0.0101418
0.01014
0.0101382
0.0101363
0.0101344
0.0101325
0.0101306
0.0101286
0.0101265
0.0101244
0.0101223
0.0101201
0.0101179
0.0101155
0.0101131
0.0101107
0.0101081
0.0101055
0.0101027
0.0100999
0.0100969
0.0100938
0.0100906
0.0100873
0.010084
0.0100805
0.010077
0.0100736
0.0100702
0.0100672
0.0100646
0.0100626
0.0100616
0.0100619
0.0100637
0.0100673
0.0100729
0.0100802
0.0100888
0.0100981
0.0101073
0.0101159
0.0101236
0.0101301
0.0101354
0.0101394
0.0101421
0.0101441
0.0101475
0.0108453
0.0108304
0.0108324
0.010839
0.0108476
0.0108576
0.0108678
0.0108775
0.0108857
0.0108889
0.0108844
0.0108697
0.0108434
0.0108053
0.0107568
0.0107001
0.0106382
0.0105743
0.0105111
0.0104512
0.0103963
0.0103477
0.010306
0.0102713
0.0102436
0.0102224
0.0102068
0.010196
0.0101892
0.0101858
0.0101851
0.0101865
0.0101895
0.0101935
0.010198
0.0102029
0.0102077
0.0102122
0.0102163
0.0102199
0.0102228
0.0102251
0.0102268
0.0102278
0.0102283
0.0102282
0.0102276
0.0102266
0.0102253
0.0102236
0.0102218
0.0102197
0.0102175
0.0102151
0.0102128
0.0102103
0.0102079
0.0102055
0.0102031
0.0102008
0.0101985
0.0101962
0.010194
0.0101919
0.0101898
0.0101877
0.0101857
0.0101838
0.0101819
0.01018
0.0101782
0.0101764
0.0101747
0.0101729
0.0101712
0.0101695
0.0101678
0.0101661
0.0101644
0.0101627
0.0101611
0.0101594
0.0101577
0.0101561
0.0101544
0.0101527
0.010151
0.0101493
0.0101476
0.0101459
0.0101442
0.0101424
0.0101407
0.0101389
0.0101371
0.0101353
0.0101335
0.0101316
0.0101297
0.0101278
0.0101259
0.0101239
0.0101219
0.0101199
0.0101178
0.0101156
0.0101135
0.0101112
0.010109
0.0101066
0.0101043
0.0101019
0.0100994
0.0100969
0.0100944
0.010092
0.0100895
0.0100872
0.010085
0.010083
0.0100814
0.0100802
0.0100797
0.01008
0.0100813
0.0100838
0.0100876
0.0100927
0.0100989
0.0101059
0.0101133
0.0101207
0.0101276
0.0101338
0.0101392
0.0101437
0.0101472
0.0101498
0.010152
0.0101581
0.0108244
0.0108052
0.0108072
0.0108146
0.0108244
0.010836
0.0108478
0.0108583
0.0108672
0.0108712
0.0108662
0.0108493
0.0108189
0.0107751
0.0107197
0.0106558
0.0105872
0.0105175
0.01045
0.0103873
0.0103313
0.0102829
0.0102427
0.0102105
0.010186
0.0101685
0.0101568
0.01015
0.0101472
0.0101477
0.0101508
0.0101559
0.0101622
0.0101694
0.0101769
0.0101845
0.0101917
0.0101985
0.0102046
0.0102099
0.0102145
0.0102182
0.0102211
0.0102233
0.0102247
0.0102254
0.0102255
0.0102251
0.0102243
0.0102231
0.0102215
0.0102198
0.0102178
0.0102156
0.0102134
0.0102111
0.0102087
0.0102064
0.010204
0.0102017
0.0101994
0.0101971
0.0101949
0.0101927
0.0101906
0.0101886
0.0101865
0.0101846
0.0101826
0.0101807
0.0101789
0.010177
0.0101753
0.0101735
0.0101717
0.01017
0.0101683
0.0101666
0.0101649
0.0101632
0.0101615
0.0101599
0.0101582
0.0101565
0.0101549
0.0101532
0.0101515
0.0101499
0.0101482
0.0101465
0.0101448
0.0101431
0.0101414
0.0101397
0.010138
0.0101363
0.0101345
0.0101328
0.010131
0.0101292
0.0101274
0.0101256
0.0101238
0.010122
0.0101201
0.0101182
0.0101164
0.0101145
0.0101126
0.0101107
0.0101088
0.0101069
0.010105
0.0101032
0.0101014
0.0100998
0.0100982
0.0100968
0.0100956
0.0100947
0.0100942
0.0100942
0.0100947
0.0100959
0.0100979
0.0101008
0.0101046
0.0101093
0.0101147
0.0101206
0.0101267
0.0101327
0.0101384
0.0101435
0.0101481
0.010152
0.0101553
0.0101577
0.0101602
0.0101683
0.0107987
0.0107752
0.0107769
0.0107853
0.0107964
0.0108097
0.0108237
0.0108357
0.0108449
0.0108498
0.0108446
0.0108255
0.0107905
0.0107403
0.0106773
0.0106056
0.0105299
0.0104544
0.0103829
0.010318
0.0102615
0.0102142
0.0101762
0.0101473
0.0101267
0.0101135
0.0101062
0.0101036
0.0101051
0.0101098
0.0101169
0.0101256
0.0101355
0.0101459
0.0101563
0.0101665
0.0101762
0.0101851
0.0101932
0.0102003
0.0102064
0.0102115
0.0102156
0.0102188
0.0102212
0.0102227
0.0102235
0.0102237
0.0102234
0.0102226
0.0102214
0.0102199
0.0102181
0.0102161
0.010214
0.0102118
0.0102096
0.0102073
0.0102049
0.0102026
0.0102003
0.0101981
0.0101958
0.0101936
0.0101915
0.0101894
0.0101873
0.0101853
0.0101834
0.0101814
0.0101795
0.0101777
0.0101759
0.0101741
0.0101723
0.0101705
0.0101688
0.0101671
0.0101654
0.0101637
0.010162
0.0101603
0.0101587
0.010157
0.0101554
0.0101537
0.0101521
0.0101504
0.0101488
0.0101471
0.0101455
0.0101438
0.0101422
0.0101405
0.0101389
0.0101372
0.0101356
0.0101339
0.0101323
0.0101307
0.010129
0.0101274
0.0101257
0.0101241
0.0101225
0.0101209
0.0101193
0.0101177
0.0101162
0.0101147
0.0101133
0.0101119
0.0101105
0.0101093
0.0101082
0.0101072
0.0101064
0.0101058
0.0101055
0.0101055
0.0101058
0.0101066
0.0101079
0.0101097
0.0101122
0.0101154
0.0101191
0.0101235
0.0101282
0.0101333
0.0101385
0.0101435
0.0101483
0.0101528
0.0101567
0.0101603
0.0101633
0.0101656
0.0101684
0.0101781
0.0107672
0.0107391
0.0107408
0.0107501
0.0107626
0.0107778
0.0107942
0.0108088
0.0108186
0.010824
0.0108191
0.0107978
0.0107581
0.0107008
0.0106295
0.0105495
0.0104664
0.0103854
0.0103103
0.010244
0.0101879
0.0101426
0.0101079
0.010083
0.010067
0.0100585
0.0100559
0.0100579
0.0100639
0.0100729
0.010084
0.0100965
0.0101098
0.0101233
0.0101367
0.0101495
0.0101615
0.0101725
0.0101824
0.0101912
0.0101988
0.0102052
0.0102105
0.0102147
0.0102179
0.0102202
0.0102216
0.0102224
0.0102225
0.0102221
0.0102212
0.01022
0.0102185
0.0102167
0.0102147
0.0102126
0.0102104
0.0102082
0.0102059
0.0102036
0.0102013
0.010199
0.0101968
0.0101946
0.0101924
0.0101903
0.0101882
0.0101861
0.0101841
0.0101822
0.0101802
0.0101783
0.0101765
0.0101747
0.0101729
0.0101711
0.0101693
0.0101676
0.0101659
0.0101642
0.0101625
0.0101608
0.0101592
0.0101575
0.0101559
0.0101542
0.0101526
0.010151
0.0101494
0.0101478
0.0101462
0.0101446
0.010143
0.0101414
0.0101398
0.0101383
0.0101367
0.0101352
0.0101336
0.0101321
0.0101306
0.0101292
0.0101277
0.0101263
0.0101249
0.0101236
0.0101223
0.010121
0.0101198
0.0101187
0.0101177
0.0101167
0.0101159
0.0101152
0.0101147
0.0101143
0.0101141
0.0101142
0.0101146
0.0101152
0.0101163
0.0101177
0.0101195
0.0101218
0.0101246
0.0101279
0.0101316
0.0101357
0.01014
0.0101445
0.010149
0.0101534
0.0101576
0.0101615
0.010165
0.0101683
0.0101711
0.0101734
0.0101764
0.0101872
0.0107286
0.0106962
0.0106978
0.0107077
0.0107216
0.010739
0.0107583
0.0107761
0.0107881
0.0107934
0.010789
0.0107661
0.0107214
0.0106566
0.0105764
0.0104877
0.0103973
0.010311
0.0102331
0.0101663
0.0101118
0.0100696
0.010039
0.0100191
0.0100084
0.0100049
0.010007
0.0100139
0.0100245
0.0100379
0.010053
0.0100692
0.0100858
0.0101024
0.0101184
0.0101336
0.0101478
0.0101608
0.0101725
0.0101828
0.0101918
0.0101994
0.0102057
0.0102109
0.0102149
0.0102179
0.0102199
0.0102212
0.0102218
0.0102217
0.0102212
0.0102202
0.0102189
0.0102173
0.0102154
0.0102134
0.0102113
0.0102091
0.0102068
0.0102046
0.0102023
0.0102
0.0101977
0.0101955
0.0101933
0.0101911
0.010189
0.0101869
0.0101849
0.0101829
0.0101809
0.010179
0.0101771
0.0101753
0.0101734
0.0101716
0.0101699
0.0101681
0.0101664
0.0101647
0.010163
0.0101613
0.0101597
0.010158
0.0101564
0.0101548
0.0101532
0.0101516
0.01015
0.0101484
0.0101468
0.0101453
0.0101438
0.0101423
0.0101408
0.0101393
0.0101378
0.0101364
0.010135
0.0101336
0.0101323
0.010131
0.0101297
0.0101285
0.0101273
0.0101262
0.0101252
0.0101243
0.0101234
0.0101226
0.010122
0.0101214
0.0101211
0.0101208
0.0101208
0.010121
0.0101213
0.010122
0.0101229
0.0101241
0.0101257
0.0101276
0.0101298
0.0101325
0.0101355
0.0101388
0.0101424
0.0101463
0.0101503
0.0101544
0.0101585
0.0101624
0.0101661
0.0101696
0.0101729
0.0101759
0.0101787
0.010181
0.010184
0.0101958
0.0106816
0.0106454
0.0106467
0.0106573
0.0106724
0.010692
0.0107146
0.0107364
0.0107522
0.010758
0.0107541
0.0107302
0.0106807
0.0106078
0.0105182
0.0104205
0.0103229
0.0102321
0.0101525
0.0100864
0.0100346
0.00999653
0.0099711
0.00995676
0.0099518
0.00995374
0.00996094
0.00997273
0.00998797
0.0100055
0.0100245
0.0100442
0.010064
0.0100833
0.0101019
0.0101194
0.0101356
0.0101503
0.0101636
0.0101753
0.0101855
0.0101942
0.0102015
0.0102075
0.0102122
0.0102159
0.0102185
0.0102202
0.0102212
0.0102215
0.0102212
0.0102205
0.0102193
0.0102179
0.0102162
0.0102143
0.0102122
0.01021
0.0102078
0.0102055
0.0102032
0.0102009
0.0101987
0.0101964
0.0101942
0.010192
0.0101898
0.0101877
0.0101856
0.0101836
0.0101816
0.0101797
0.0101778
0.0101759
0.010174
0.0101722
0.0101704
0.0101687
0.0101669
0.0101652
0.0101635
0.0101618
0.0101602
0.0101585
0.0101569
0.0101553
0.0101537
0.0101521
0.0101506
0.0101491
0.0101475
0.010146
0.0101446
0.0101431
0.0101417
0.0101403
0.010139
0.0101376
0.0101364
0.0101351
0.0101339
0.0101328
0.0101317
0.0101307
0.0101297
0.0101289
0.0101281
0.0101274
0.0101268
0.0101264
0.0101261
0.0101259
0.0101259
0.0101261
0.0101265
0.0101271
0.010128
0.0101291
0.0101305
0.0101322
0.0101341
0.0101364
0.010139
0.0101418
0.010145
0.0101484
0.010152
0.0101557
0.0101595
0.0101633
0.010167
0.0101706
0.010174
0.0101772
0.0101803
0.0101832
0.0101859
0.0101881
0.0101913
0.0102037
0.0106249
0.0105857
0.0105869
0.0105977
0.0106137
0.0106354
0.0106615
0.0106882
0.0107094
0.010718
0.0107143
0.0106901
0.0106361
0.0105549
0.0104554
0.0103486
0.0102443
0.0101498
0.0100696
0.0100056
0.00995781
0.00992509
0.00990568
0.00989759
0.00989854
0.00990605
0.00991848
0.00993519
0.00995491
0.00997653
0.00999914
0.0100221
0.0100447
0.0100666
0.0100874
0.0101069
0.0101249
0.0101412
0.0101559
0.0101688
0.0101801
0.0101898
0.0101979
0.0102046
0.01021
0.0102142
0.0102173
0.0102195
0.0102208
0.0102214
0.0102214
0.0102209
0.0102199
0.0102185
0.0102169
0.0102151
0.0102131
0.010211
0.0102088
0.0102065
0.0102042
0.0102019
0.0101996
0.0101973
0.010195
0.0101928
0.0101906
0.0101885
0.0101864
0.0101843
0.0101823
0.0101803
0.0101784
0.0101765
0.0101746
0.0101728
0.010171
0.0101692
0.0101674
0.0101657
0.010164
0.0101623
0.0101607
0.010159
0.0101574
0.0101558
0.0101543
0.0101527
0.0101512
0.0101497
0.0101482
0.0101468
0.0101454
0.010144
0.0101427
0.0101413
0.0101401
0.0101389
0.0101377
0.0101366
0.0101355
0.0101345
0.0101336
0.0101328
0.010132
0.0101314
0.0101308
0.0101304
0.0101301
0.01013
0.01013
0.0101302
0.0101305
0.0101311
0.0101319
0.0101329
0.0101341
0.0101356
0.0101374
0.0101394
0.0101417
0.0101443
0.0101471
0.0101501
0.0101534
0.0101568
0.0101603
0.0101639
0.0101676
0.0101711
0.0101746
0.010178
0.0101812
0.0101842
0.0101871
0.0101899
0.0101926
0.0101948
0.0101981
0.0102109
0.0105575
0.0105167
0.0105174
0.010528
0.0105443
0.0105678
0.0105975
0.01063
0.0106582
0.0106727
0.0106698
0.0106462
0.0105884
0.0104987
0.0103889
0.0102729
0.0101625
0.0100654
0.00998605
0.00992556
0.00988312
0.00985682
0.00984427
0.00984301
0.00984985
0.00986266
0.00988044
0.00990196
0.00992593
0.0099513
0.00997722
0.010003
0.0100282
0.0100523
0.0100751
0.0100963
0.0101158
0.0101335
0.0101494
0.0101634
0.0101756
0.0101861
0.010195
0.0102023
0.0102083
0.010213
0.0102165
0.010219
0.0102206
0.0102215
0.0102217
0.0102213
0.0102205
0.0102192
0.0102177
0.0102159
0.010214
0.0102119
0.0102097
0.0102074
0.0102051
0.0102028
0.0102005
0.0101982
0.0101959
0.0101936
0.0101914
0.0101893
0.0101871
0.010185
0.010183
0.010181
0.010179
0.0101771
0.0101752
0.0101733
0.0101715
0.0101697
0.0101679
0.0101662
0.0101645
0.0101628
0.0101611
0.0101595
0.0101579
0.0101563
0.0101548
0.0101533
0.0101518
0.0101503
0.0101489
0.0101475
0.0101462
0.0101448
0.0101436
0.0101423
0.0101412
0.01014
0.010139
0.010138
0.0101371
0.0101362
0.0101355
0.0101348
0.0101342
0.0101338
0.0101335
0.0101333
0.0101332
0.0101334
0.0101337
0.0101341
0.0101348
0.0101357
0.0101368
0.0101381
0.0101397
0.0101415
0.0101436
0.0101459
0.0101485
0.0101512
0.0101542
0.0101574
0.0101608
0.0101642
0.0101677
0.0101712
0.0101747
0.0101782
0.0101815
0.0101847
0.0101877
0.0101906
0.0101934
0.0101962
0.0101988
0.010201
0.0102044
0.0102175
0.0104785
0.010438
0.010438
0.0104475
0.0104632
0.0104877
0.0105211
0.0105602
0.0105974
0.0106209
0.0106217