/*--------------------------------*- C++ -*----------------------------------*\
  =========                 |
  \\      /  F ield         | OpenFOAM: The Open Source CFD Toolbox
   \\    /   O peration     | Website:  https://openfoam.org
    \\  /    A nd           | Version:  12
     \\/     M anipulation  |
\*---------------------------------------------------------------------------*/
FoamFile
{
    format      ascii;
    class       surfaceScalarField;
    location    "40";
    object      phi;
}
// * * * * * * * * * * * * * * * * * * * * * * * * * * * * * * * * * * * * * //

dimensions      [0 3 -1 0 0 0 0];

internalField   nonuniform List<scalar> 
8788
(
-2.47561e-08
2.47562e-08
1.05878e-08
-3.53439e-08
1.47547e-07
-1.3696e-07
4.28543e-07
-2.80995e-07
8.93502e-07
-4.64959e-07
1.57728e-06
-6.83779e-07
2.50739e-06
-9.30104e-07
3.7017e-06
-1.19431e-06
5.16638e-06
-1.46468e-06
6.89433e-06
-1.72795e-06
8.86456e-06
-1.97023e-06
1.10427e-05
-2.17812e-06
1.33826e-05
-2.33989e-06
1.5829e-05
-2.44648e-06
1.83214e-05
-2.49231e-06
2.07968e-05
-2.47549e-06
2.31947e-05
-2.39787e-06
2.54592e-05
-2.26445e-06
2.7542e-05
-2.08281e-06
2.94042e-05
-1.86222e-06
3.1017e-05
-1.61282e-06
3.2362e-05
-1.34494e-06
3.34304e-05
-1.06842e-06
3.42226e-05
-7.92211e-07
3.47466e-05
-5.24037e-07
3.50168e-05
-2.70202e-07
3.50521e-05
-3.53047e-08
3.4874e-05
1.78118e-07
3.45053e-05
3.68728e-07
3.39696e-05
5.35678e-07
3.32908e-05
6.78761e-07
3.24925e-05
7.98324e-07
3.15973e-05
8.95192e-07
3.06267e-05
9.7058e-07
2.96008e-05
1.02599e-06
2.85376e-05
1.06315e-06
2.74537e-05
1.08389e-06
2.63636e-05
1.09012e-06
2.52798e-05
1.08374e-06
2.42133e-05
1.0666e-06
2.31728e-05
1.04046e-06
2.21658e-05
1.00699e-06
2.11981e-05
9.67707e-07
2.02741e-05
9.23982e-07
1.93971e-05
8.77049e-07
1.85691e-05
8.27992e-07
1.77913e-05
7.77748e-07
1.70642e-05
7.27123e-07
1.63874e-05
6.76793e-07
1.57601e-05
6.27317e-07
1.51809e-05
5.79151e-07
1.46483e-05
5.32654e-07
1.41602e-05
4.88103e-07
1.37145e-05
4.45702e-07
1.33089e-05
4.05589e-07
1.2941e-05
3.67849e-07
1.26085e-05
3.32522e-07
1.23089e-05
2.99608e-07
1.20398e-05
2.69075e-07
1.1799e-05
2.40865e-07
1.15841e-05
2.149e-07
1.1393e-05
1.91085e-07
1.12237e-05
1.69314e-07
1.10742e-05
1.49471e-07
1.09428e-05
1.31437e-07
1.08277e-05
1.15089e-07
1.07274e-05
1.003e-07
1.06404e-05
8.69492e-08
1.05655e-05
7.49137e-08
1.05014e-05
6.40756e-08
1.04471e-05
5.43207e-08
1.04016e-05
4.55394e-08
1.03639e-05
3.7627e-08
1.03335e-05
3.0484e-08
1.03094e-05
2.4016e-08
1.02913e-05
1.81339e-08
1.02786e-05
1.27534e-08
1.02708e-05
7.79541e-09
1.02676e-05
3.18648e-09
1.02687e-05
-1.13999e-09
1.0274e-05
-5.25122e-09
1.02832e-05
-9.21531e-09
1.02963e-05
-1.3096e-08
1.03132e-05
-1.69555e-08
1.03341e-05
-2.08555e-08
1.03589e-05
-2.48578e-08
1.0388e-05
-2.90253e-08
1.04214e-05
-3.34232e-08
1.04595e-05
-3.81195e-08
1.05027e-05
-4.31868e-08
1.05514e-05
-4.87029e-08
1.06062e-05
-5.47531e-08
1.06676e-05
-6.14308e-08
1.07364e-05
-6.88407e-08
1.08135e-05
-7.70999e-08
1.08999e-05
-8.63417e-08
1.09966e-05
-9.67183e-08
1.1105e-05
-1.08405e-07
1.12266e-05
-1.21604e-07
1.13631e-05
-1.36553e-07
1.15167e-05
-1.53529e-07
1.16895e-05
-1.7286e-07
1.18845e-05
-1.94934e-07
1.21047e-05
-2.20218e-07
1.2354e-05
-2.49268e-07
1.26367e-05
-2.8276e-07
1.29582e-05
-3.21515e-07
1.33248e-05
-3.66538e-07
1.37438e-05
-4.19069e-07
1.42245e-05
-4.80649e-07
1.47777e-05
-5.53201e-07
1.54168e-05
-6.39143e-07
1.61584e-05
-7.4153e-07
1.70226e-05
-8.6423e-07
1.80347e-05
-1.01214e-06
1.92262e-05
-1.19146e-06
2.06361e-05
-1.40995e-06
2.23134e-05
-1.67723e-06
2.43192e-05
-2.00578e-06
2.67368e-05
-2.41769e-06
2.97072e-05
-2.97036e-06
3.35118e-05
-3.80465e-06
3.87032e-05
-5.1914e-06
4.67493e-05
-8.04606e-06
6.49445e-05
-1.81952e-05
0.000127478
-6.25339e-05
6.77976e-05
-0.000161744
1.2939e-05
-0.00021375
-4.43961e-05
-0.000218675
-0.000109041
-0.000169312
-4.38796e-05
-6.51609e-05
-2.47716e-05
-1.9108e-05
-1.65538e-05
-8.21782e-06
-1.15204e-05
-5.03339e-06
-8.02224e-06
-3.49813e-06
-5.42459e-06
-2.59765e-06
-3.42225e-06
-2.00234e-06
-1.87865e-06
-1.5436e-06
-7.25616e-07
-1.15303e-06
-7.25616e-07
2.46931e-08
6.31686e-11
1.14982e-07
-1.25632e-07
3.25869e-07
-3.47847e-07
7.08142e-07
-6.63268e-07
1.30886e-06
-1.06568e-06
2.16884e-06
-1.54376e-06
3.31995e-06
-2.08121e-06
4.78242e-06
-2.65678e-06
6.5625e-06
-3.24476e-06
8.65081e-06
-3.81625e-06
1.10218e-05
-4.34118e-06
1.36343e-05
-4.79066e-06
1.6434e-05
-5.13959e-06
1.93562e-05
-5.36873e-06
2.23302e-05
-5.46629e-06
2.52833e-05
-5.42856e-06
2.8145e-05
-5.2596e-06
3.08509e-05
-4.97033e-06
3.33451e-05
-4.57697e-06
3.55822e-05
-4.09933e-06
3.75284e-05
-3.55907e-06
3.91617e-05
-2.97818e-06
4.04709e-05
-2.37767e-06
4.14553e-05
-1.77664e-06
4.21229e-05
-1.19162e-06
4.24889e-05
-6.36133e-07
4.25739e-05
-1.20316e-07
4.24024e-05
3.49624e-07
4.20006e-05
7.70454e-07
4.13961e-05
1.14017e-06
4.06167e-05
1.45816e-06
3.96901e-05
1.72501e-06
3.86429e-05
1.94238e-06
3.75007e-05
2.11276e-06
3.62874e-05
2.23931e-06
3.50249e-05
2.32565e-06
3.37331e-05
2.37571e-06
3.24296e-05
2.39359e-06
3.113e-05
2.38338e-06
2.98474e-05
2.3491e-06
2.85933e-05
2.29463e-06
2.73767e-05
2.22357e-06
2.62051e-05
2.13928e-06
2.50843e-05
2.0448e-06
2.40185e-05
1.94288e-06
2.30106e-05
1.83591e-06
2.20623e-05
1.72601e-06
2.11744e-05
1.61499e-06
2.03469e-05
1.50436e-06
1.95788e-05
1.39541e-06
1.88688e-05
1.28916e-06
1.8215e-05
1.18645e-06
1.76152e-05
1.08791e-06
1.70669e-05
9.94015e-07
1.65673e-05
9.05095e-07
1.61138e-05
8.21359e-07
1.57034e-05
7.42908e-07
1.53333e-05
6.69757e-07
1.50005e-05
6.01848e-07
1.47023e-05
5.39064e-07
1.4436e-05
4.81238e-07
1.41989e-05
4.28168e-07
1.39886e-05
3.79625e-07
1.38027e-05
3.35357e-07
1.3639e-05
2.95103e-07
1.34955e-05
2.5859e-07
1.33703e-05
2.25546e-07
1.32615e-05
1.95698e-07
1.31677e-05
1.68778e-07
1.30872e-05
1.44525e-07
1.30189e-05
1.22686e-07
1.29614e-05
1.03017e-07
1.29137e-05
8.52882e-08
1.28749e-05
6.92772e-08
1.28442e-05
5.47748e-08
1.28207e-05
4.1583e-08
1.2804e-05
2.95147e-08
1.27934e-05
1.8394e-08
1.27885e-05
8.05601e-09
1.2789e-05
-1.65124e-09
1.27946e-05
-1.0875e-08
1.28052e-05
-1.97628e-08
1.28205e-05
-2.84584e-08
1.28407e-05
-3.71008e-08
1.28657e-05
-4.58274e-08
1.28956e-05
-5.47758e-08
1.29306e-05
-6.40864e-08
1.29711e-05
-7.39037e-08
1.30174e-05
-8.43795e-08
1.30699e-05
-9.56746e-08
1.31291e-05
-1.07962e-07
1.31958e-05
-1.21431e-07
1.32707e-05
-1.36288e-07
1.33546e-05
-1.52766e-07
1.34486e-05
-1.71123e-07
1.35539e-05
-1.91654e-07
1.36719e-05
-2.14696e-07
1.38041e-05
-2.40635e-07
1.39524e-05
-2.69918e-07
1.4119e-05
-3.03067e-07
1.43061e-05
-3.40694e-07
1.45168e-05
-3.83519e-07
1.47543e-05
-4.32399e-07
1.50224e-05
-4.88352e-07
1.53257e-05
-5.52605e-07
1.56696e-05
-6.26637e-07
1.60603e-05
-7.1225e-07
1.65054e-05
-8.11649e-07
1.70139e-05
-9.27554e-07
1.75966e-05
-1.06335e-06
1.82667e-05
-1.22329e-06
1.90403e-05
-1.41274e-06
1.99374e-05
-1.63858e-06
2.09828e-05
-1.90972e-06
2.22086e-05
-2.23789e-06
2.36561e-05
-2.63893e-06
2.5381e-05
-3.13491e-06
2.74621e-05
-3.75834e-06
3.00175e-05
-4.56112e-06
3.32357e-05
-5.63591e-06
3.74319e-05
-7.16652e-06
4.31573e-05
-9.53013e-06
5.14768e-05
-1.35108e-05
6.4433e-05
-2.10024e-05
8.35002e-05
-3.72623e-05
9.43233e-05
-7.3357e-05
6.197e-05
-0.000129391
1.34072e-05
-0.000165187
-3.66927e-05
-0.000168575
-7.10064e-05
-0.000134998
-5.93694e-05
-7.67979e-05
-3.95414e-05
-3.8936e-05
-2.61409e-05
-2.16183e-05
-1.76549e-05
-1.35194e-05
-1.19634e-05
-9.18961e-06
-7.94314e-06
-6.61794e-06
-5.00649e-06
-4.93899e-06
-2.82423e-06
-3.72585e-06
-1.21374e-06
-2.76353e-06
-1.93935e-06
7.08467e-08
-7.07835e-08
2.15961e-07
-2.70746e-07
4.95972e-07
-6.27859e-07
9.69181e-07
-1.13648e-06
1.68912e-06
-1.78562e-06
2.70206e-06
-2.5567e-06
4.04392e-06
-3.42307e-06
5.73718e-06
-4.35004e-06
7.78817e-06
-5.29576e-06
1.01854e-05
-6.21345e-06
1.28988e-05
-7.05462e-06
1.58812e-05
-7.77302e-06
1.90703e-05
-8.32868e-06
2.23929e-05
-8.69134e-06
2.57694e-05
-8.84283e-06
2.91188e-05
-8.7779e-06
3.23629e-05
-8.50374e-06
3.54307e-05
-8.03818e-06
3.82611e-05
-7.40733e-06
4.08045e-05
-6.64272e-06
4.30241e-05
-5.77864e-06
4.48956e-05
-4.84969e-06
4.64068e-05
-3.88889e-06
4.75563e-05
-2.92617e-06
4.83521e-05
-1.98745e-06
4.881e-05
-1.094e-06
4.89517e-05
-2.61977e-07
4.88033e-05
4.98043e-07
4.83935e-05
1.18026e-06
4.77523e-05
1.78134e-06
4.69103e-05
2.3001e-06
4.58981e-05
2.73726e-06
4.47453e-05
3.09521e-06
4.34803e-05
3.37774e-06
4.21299e-05
3.58968e-06
4.07189e-05
3.73668e-06
3.92697e-05
3.82488e-06
3.78026e-05
3.8607e-06
3.63353e-05
3.85064e-06
3.48834e-05
3.8011e-06
3.34597e-05
3.71824e-06
3.20754e-05
3.60788e-06
3.07393e-05
3.47542e-06
2.94583e-05
3.32581e-06
2.82377e-05
3.16348e-06
2.70812e-05
2.99239e-06
2.59912e-05
2.81599e-06
2.49689e-05
2.63727e-06
2.40145e-05
2.45875e-06
2.31274e-05
2.28255e-06
2.23062e-05
2.11042e-06
2.15489e-05
1.94373e-06
2.08532e-05
1.78358e-06
2.02164e-05
1.63078e-06
1.96356e-05
1.48591e-06
1.91076e-05
1.34933e-06
1.86293e-05
1.22126e-06
1.81973e-05
1.10172e-06
1.78085e-05
9.90663e-07
1.74597e-05
8.87904e-07
1.71477e-05
7.93191e-07
1.68697e-05
7.06209e-07
1.66227e-05
6.26593e-07
1.64041e-05
5.53945e-07
1.62114e-05
4.87842e-07
1.60421e-05
4.27849e-07
1.58942e-05
3.73524e-07
1.57654e-05
3.24426e-07
1.56541e-05
2.80122e-07
1.55584e-05
2.40185e-07
1.54769e-05
2.04207e-07
1.54081e-05
1.7179e-07
1.53509e-05
1.42557e-07
1.5304e-05
1.16148e-07
1.52665e-05
9.22203e-08
1.52377e-05
7.04509e-08
1.52167e-05
5.05339e-08
1.52029e-05
3.21815e-08
1.51958e-05
1.51226e-08
1.5195e-05
-8.96481e-10
1.52003e-05
-1.6114e-08
1.52113e-05
-3.07666e-08
1.52279e-05
-4.50904e-08
1.52501e-05
-5.93135e-08
1.5278e-05
-7.36603e-08
1.53115e-05
-8.83561e-08
1.53511e-05
-1.0363e-07
1.53969e-05
-1.19717e-07
1.54494e-05
-1.36866e-07
1.55091e-05
-1.55337e-07
1.55765e-05
-1.75412e-07
1.56525e-05
-1.97397e-07
1.57378e-05
-2.21628e-07
1.58335e-05
-2.4848e-07
1.59408e-05
-2.78372e-07
1.60609e-05
-3.11778e-07
1.61954e-05
-3.49239e-07
1.63462e-05
-3.91378e-07
1.65152e-05
-4.38912e-07
1.67048e-05
-4.92678e-07
1.69177e-05
-5.53652e-07
1.71572e-05
-6.22986e-07
1.74269e-05
-7.02042e-07
1.77309e-05
-7.92443e-07
1.80745e-05
-8.96134e-07
1.84633e-05
-1.01546e-06
1.89043e-05
-1.15327e-06
1.94057e-05
-1.31305e-06
1.99773e-05
-1.4991e-06
2.06307e-05
-1.71676e-06
2.13801e-05
-1.97276e-06
2.2243e-05
-2.27563e-06
2.32409e-05
-2.63639e-06
2.44006e-05
-3.06949e-06
2.5757e-05
-3.5943e-06
2.73556e-05
-4.23752e-06
2.92582e-05
-5.03743e-06
3.15512e-05
-6.05137e-06
3.43601e-05
-7.37007e-06
3.78697e-05
-9.14547e-06
4.23474e-05
-1.16442e-05
4.81609e-05
-1.53436e-05
5.57511e-05
-2.11011e-05
6.52504e-05
-3.05016e-05
7.44157e-05
-4.64277e-05
7.35859e-05
-7.25272e-05
5.06213e-05
-0.000106426
1.45239e-05
-0.00012909
-2.25952e-05
-0.000131456
-4.69254e-05
-0.000110668
-4.7807e-05
-7.59162e-05
-3.81754e-05
-4.85677e-05
-2.81734e-05
-3.16203e-05
-2.02091e-05
-2.14837e-05
-1.41829e-05
-1.52158e-05
-9.64466e-06
-1.11562e-05
-6.20639e-06
-8.37727e-06
-3.58157e-06
-6.35068e-06
-1.56601e-06
-4.77908e-06
-3.50537e-06
1.06096e-07
-1.7688e-07
2.92987e-07
-4.57637e-07
6.26919e-07
-9.61791e-07
1.17252e-06
-1.68208e-06
1.98955e-06
-2.60265e-06
3.12981e-06
-3.69696e-06
4.63353e-06
-4.92679e-06
6.5257e-06
-6.2422e-06
8.813e-06
-7.58306e-06
1.14818e-05
-8.88223e-06
1.44976e-05
-1.00704e-05
1.78063e-05
-1.10818e-05
2.13377e-05
-1.18601e-05
2.50096e-05
-1.23632e-05
2.87335e-05
-1.25667e-05
3.24201e-05
-1.24645e-05
3.59847e-05
-1.20683e-05
3.9351e-05
-1.14045e-05
4.2454e-05
-1.05104e-05
4.52421e-05
-9.43082e-06
4.76773e-05
-8.21381e-06
4.9735e-05
-6.90742e-06
5.14034e-05
-5.55723e-06
5.26816e-05
-4.20438e-06
5.35785e-05
-2.88435e-06
5.41108e-05
-1.62625e-06
5.43012e-05
-4.52379e-07
5.41771e-05
6.2212e-07
5.37688e-05
1.58855e-06
5.3108e-05
2.44211e-06
5.22272e-05
3.18091e-06
5.11587e-05
3.80572e-06
4.99343e-05
4.31967e-06
4.85842e-05
4.72779e-06
4.71373e-05
5.03663e-06
4.56201e-05
5.25386e-06
4.40571e-05
5.3879e-06
4.24702e-05
5.4476e-06
4.08789e-05
5.44194e-06
3.93002e-05
5.3798e-06
3.77486e-05
5.26976e-06
3.62365e-05
5.11999e-06
3.47739e-05
4.93807e-06
3.33687e-05
4.73099e-06
3.20271e-05
4.50504e-06
3.07537e-05
4.26586e-06
2.95513e-05
4.01839e-06
2.84216e-05
3.76692e-06
2.73653e-05
3.51511e-06
2.63818e-05
3.26604e-06
2.547e-05
3.02224e-06
2.46279e-05
2.78575e-06
2.38533e-05
2.55819e-06
2.31433e-05
2.34078e-06
2.24949e-05
2.13438e-06
2.19046e-05
1.93959e-06
2.13691e-05
1.75672e-06
2.0885e-05
1.58589e-06
2.04486e-05
1.42702e-06
2.00566e-05
1.2799e-06
1.97056e-05
1.1442e-06
1.93923e-05
1.01948e-06
1.91137e-05
9.05241e-07
1.88667e-05
8.00929e-07
1.86486e-05
7.05954e-07
1.84567e-05
6.19704e-07
1.82887e-05
5.41555e-07
1.81423e-05
4.70885e-07
1.80153e-05
4.07079e-07
1.7906e-05
3.49534e-07
1.78125e-05
2.97665e-07
1.77334e-05
2.5091e-07
1.76672e-05
2.0873e-07
1.76127e-05
1.70611e-07
1.75689e-05
1.36065e-07
1.75347e-05
1.0463e-07
1.75094e-05
7.58697e-08
1.74922e-05
4.93709e-08
1.74826e-05
2.4745e-08
1.748e-05
1.62513e-09
1.74843e-05
-2.03291e-08
1.74949e-05
-4.14528e-08
1.75119e-05
-6.20827e-08
1.75352e-05
-8.25444e-08
1.75647e-05
-1.03159e-07
1.76006e-05
-1.24247e-07
1.76431e-05
-1.46136e-07
1.76925e-05
-1.69161e-07
1.77493e-05
-1.93673e-07
1.7814e-05
-2.20043e-07
1.78873e-05
-2.48669e-07
1.79699e-05
-2.79984e-07
1.80627e-05
-3.14462e-07
1.81668e-05
-3.52629e-07
1.82836e-05
-3.95074e-07
1.84142e-05
-4.42462e-07
1.85605e-05
-4.95548e-07
1.87244e-05
-5.55201e-07
1.89079e-05
-6.22419e-07
1.91136e-05
-6.98362e-07
1.93443e-05
-7.84384e-07
1.96034e-05
-8.82073e-07
1.98946e-05
-9.93304e-07
2.02225e-05
-1.12031e-06
2.05921e-05
-1.26574e-06
2.10095e-05
-1.4328e-06
2.14816e-05
-1.62538e-06
2.20167e-05
-1.84819e-06
2.26246e-05
-2.10705e-06
2.33171e-05
-2.40917e-06
2.41079e-05
-2.76362e-06
2.50142e-05
-3.18188e-06
2.60566e-05
-3.67878e-06
2.72608e-05
-4.27374e-06
2.86593e-05
-4.99278e-06
3.02934e-05
-5.87165e-06
3.22169e-05
-6.96094e-06
3.45001e-05
-8.33455e-06
3.72342e-05
-1.01041e-05
4.05319e-05
-1.24432e-05
4.45144e-05
-1.56267e-05
4.92599e-05
-2.00891e-05
5.46592e-05
-2.65004e-05
6.00066e-05
-3.5849e-05
6.29973e-05
-4.94184e-05
5.85189e-05
-6.80488e-05
4.12359e-05
-8.91432e-05
1.54871e-05
-0.000103341
-1.09802e-05
-0.000104989
-2.92999e-05
-9.23483e-05
-3.4095e-05
-7.11211e-05
-3.09188e-05
-5.17438e-05
-2.5186e-05
-3.73531e-05
-1.93834e-05
-2.72863e-05
-1.43051e-05
-2.02941e-05
-1.00959e-05
-1.53654e-05
-6.68532e-06
-1.17879e-05
-3.94743e-06
-9.08856e-06
-1.75612e-06
-6.9704e-06
-5.26148e-06
1.24034e-07
-3.00914e-07
3.33062e-07
-6.66665e-07
6.99088e-07
-1.32782e-06
1.29327e-06
-2.27626e-06
2.18198e-06
-3.49136e-06
3.42312e-06
-4.93811e-06
5.06186e-06
-6.56553e-06
7.12631e-06
-8.30665e-06
9.62381e-06
-1.00806e-05
1.25386e-05
-1.1797e-05
1.58309e-05
-1.33628e-05
1.94393e-05
-1.46902e-05
2.32839e-05
-1.57046e-05
2.72722e-05
-1.63515e-05
3.1306e-05
-1.66004e-05
3.52874e-05
-1.64459e-05
3.91249e-05
-1.59059e-05
4.27378e-05
-1.50174e-05
4.60589e-05
-1.38314e-05
4.90356e-05
-1.24076e-05
5.16309e-05
-1.08091e-05
5.38219e-05
-9.09839e-06
5.55987e-05
-7.33402e-06
5.69627e-05
-5.56843e-06
5.79249e-05
-3.84656e-06
5.85038e-05
-2.20509e-06
5.87236e-05
-6.72173e-07
5.86129e-05
7.32754e-07
5.82033e-05
1.99817e-06
5.75277e-05
3.11772e-06
5.66198e-05
4.08885e-06
5.55131e-05
4.91241e-06
5.42405e-05
5.59228e-06
5.28335e-05
6.1348e-06
5.13218e-05
6.54824e-06
4.97333e-05
6.84235e-06
4.80934e-05
7.02782e-06
4.64251e-05
7.11595e-06
4.47488e-05
7.11822e-06
4.30826e-05
7.04604e-06
4.14419e-05
6.91047e-06
3.98398e-05
6.72204e-06
3.82873e-05
6.4906e-06
3.6793e-05
6.22523e-06
3.53639e-05
5.93418e-06
3.40049e-05
5.62483e-06
3.27196e-05
5.3037e-06
3.15101e-05
4.97647e-06
3.03772e-05
4.648e-06
2.93208e-05
4.32242e-06
2.83399e-05
4.00312e-06
2.74328e-05
3.69289e-06
2.65971e-05
3.39391e-06
2.583e-05
3.10786e-06
2.51284e-05
2.83596e-06
2.4489e-05
2.57905e-06
2.39081e-05
2.3376e-06
2.33821e-05
2.11182e-06
2.29075e-05
1.90165e-06
2.24806e-05
1.70686e-06
2.20977e-05
1.52703e-06
2.17556e-05
1.36162e-06
2.14508e-05
1.21e-06
2.11803e-05
1.07146e-06
2.0941e-05
9.45233e-07
2.07302e-05
8.30527e-07
2.05452e-05
7.2653e-07
2.03837e-05
6.32429e-07
2.02433e-05
5.47419e-07
2.01222e-05
4.70708e-07
2.00183e-05
4.0153e-07
1.99301e-05
3.39144e-07
1.9856e-05
2.8284e-07
1.97946e-05
2.3194e-07
1.97449e-05
1.85801e-07
1.97057e-05
1.43812e-07
1.96762e-05
1.05396e-07
1.96555e-05
7.00062e-08
1.96432e-05
3.71276e-08
1.96385e-05
6.27391e-09
1.96412e-05
-2.30088e-08
1.96509e-05
-5.1163e-08
1.96674e-05
-7.86297e-08
1.96907e-05
-1.05838e-07
1.97208e-05
-1.33212e-07
1.97577e-05
-1.61174e-07
1.98017e-05
-1.90153e-07
1.98532e-05
-2.20592e-07
1.99124e-05
-2.52949e-07
1.99801e-05
-2.87711e-07
2.00568e-05
-3.25397e-07
2.01434e-05
-3.66569e-07
2.02408e-05
-4.11843e-07
2.03501e-05
-4.619e-07
2.04725e-05
-5.17502e-07
2.06095e-05
-5.79504e-07
2.07629e-05
-6.48878e-07
2.09344e-05
-7.26735e-07
2.11263e-05
-8.1435e-07
2.13412e-05
-9.13201e-07
2.15818e-05
-1.025e-06
2.18515e-05
-1.15176e-06
2.2154e-05
-1.29585e-06
2.24938e-05
-1.46005e-06
2.28757e-05
-1.6477e-06
2.33057e-05
-1.86277e-06
2.37904e-05
-2.11007e-06
2.43376e-05
-2.39542e-06
2.49565e-05
-2.72595e-06
2.56578e-05
-3.11047e-06
2.64542e-05
-3.55996e-06
2.73606e-05
-4.08828e-06
2.83949e-05
-4.71314e-06
2.95788e-05
-5.45756e-06
3.09379e-05
-6.35193e-06
3.25035e-05
-7.43723e-06
3.43124e-05
-8.76982e-06
3.64066e-05
-1.04288e-05
3.88294e-05
-1.25269e-05
4.16132e-05
-1.5227e-05
4.47494e-05
-1.87629e-05
4.81228e-05
-2.34626e-05
5.13825e-05
-2.97601e-05
5.36994e-05
-3.81659e-05
5.33925e-05
-4.91115e-05
4.77572e-05
-6.24135e-05
3.45831e-05
-7.5969e-05
1.62311e-05
-8.4989e-05
-2.62868e-06
-8.61292e-05
-1.65452e-05
-7.84318e-05
-2.25473e-05
-6.5119e-05
-2.28407e-05
-5.14505e-05
-2.02757e-05
-3.99181e-05
-1.66665e-05
-3.08955e-05
-1.29348e-05
-2.40258e-05
-9.48785e-06
-1.88123e-05
-6.47047e-06
-1.48052e-05
-3.90489e-06
-1.16542e-05
-1.76242e-06
-9.11286e-06
-7.02391e-06
1.19819e-07
-4.20733e-07
3.26045e-07
-8.7289e-07
6.97337e-07
-1.69911e-06
1.3123e-06
-2.89122e-06
2.24487e-06
-4.42393e-06
3.56009e-06
-6.25333e-06
5.30911e-06
-8.31455e-06
7.52396e-06
-1.05215e-05
1.02131e-05
-1.27697e-05
1.33582e-05
-1.49421e-05
1.69137e-05
-1.69183e-05
2.08087e-05
-1.85852e-05
2.49518e-05
-1.98477e-05
2.92384e-05
-2.06381e-05
3.35585e-05
-2.09205e-05
3.78046e-05
-2.06921e-05
4.18783e-05
-1.99796e-05
4.56947e-05
-1.88338e-05
4.91854e-05
-1.7322e-05
5.22989e-05
-1.55211e-05
5.50007e-05
-1.35109e-05
5.72716e-05
-1.13693e-05
5.91058e-05
-9.16815e-06
6.05085e-05
-6.97118e-06
6.14943e-05
-4.83238e-06
6.20847e-05
-2.79544e-06
6.23062e-05
-8.93643e-07
6.21889e-05
8.49964e-07
6.17657e-05
2.42144e-06
6.10704e-05
3.81304e-06
6.01375e-05
5.02169e-06
5.90014e-05
6.04852e-06
5.76954e-05
6.8983e-06
5.62514e-05
7.57878e-06
5.46996e-05
8.10006e-06
5.3068e-05
8.47397e-06
5.13823e-05
8.71353e-06
4.96657e-05
8.83247e-06
4.79392e-05
8.84475e-06
4.6221e-05
8.76428e-06
4.45269e-05
8.60456e-06
4.28704e-05
8.37847e-06
4.12629e-05
8.09812e-06
3.97135e-05
7.77468e-06
3.82293e-05
7.41834e-06
3.68159e-05
7.03825e-06
3.5477e-05
6.64254e-06
3.42152e-05
6.2383e-06
3.30316e-05
5.83164e-06
3.19262e-05
5.42776e-06
3.08984e-05
5.03099e-06
2.99464e-05
4.64486e-06
2.90681e-05
4.27218e-06
2.82608e-05
3.91514e-06
2.75215e-05
3.57534e-06
2.68466e-05
3.25388e-06
2.62328e-05
2.95145e-06
2.56762e-05
2.66835e-06
2.51733e-05
2.40459e-06
2.47203e-05
2.15989e-06
2.43135e-05
1.9338e-06
2.39495e-05
1.72567e-06
2.36247e-05
1.53475e-06
2.3336e-05
1.36016e-06
2.30802e-05
1.20098e-06
2.28545e-05
1.05624e-06
2.26562e-05
9.24917e-07
2.24826e-05
8.06022e-07
2.23314e-05
6.98549e-07
2.22006e-05
6.01517e-07
2.20882e-05
5.13968e-07
2.19924e-05
4.34979e-07
2.19115e-05
3.63663e-07
2.18443e-05
2.99173e-07
2.17894e-05
2.40702e-07
2.17457e-05
1.87486e-07
2.17123e-05
1.38801e-07
2.16884e-05
9.39614e-08
2.16732e-05
5.23194e-08
2.16662e-05
1.32636e-08
2.16669e-05
-2.37797e-08
2.16752e-05
-5.93659e-08
2.16906e-05
-9.40434e-08
2.17131e-05
-1.28348e-07
2.17427e-05
-1.6281e-07
2.17795e-05
-1.97956e-07
2.18236e-05
-2.34323e-07
2.18755e-05
-2.72458e-07
2.19355e-05
-3.12934e-07
2.20041e-05
-3.5635e-07
2.20821e-05
-4.03348e-07
2.21701e-05
-4.5462e-07
2.22692e-05
-5.10922e-07
2.23804e-05
-5.73089e-07
2.25049e-05
-6.42047e-07
2.26443e-05
-7.18839e-07
2.28e-05
-8.04642e-07
2.29741e-05
-9.00798e-07
2.31686e-05
-1.00884e-06
2.33859e-05
-1.13055e-06
2.36289e-05
-1.26796e-06
2.39006e-05
-1.42346e-06
2.42046e-05
-1.59987e-06
2.4545e-05
-1.80045e-06
2.49264e-05
-2.02912e-06
2.53542e-05
-2.29051e-06
2.58343e-05
-2.59018e-06
2.63737e-05
-2.93483e-06
2.69803e-05
-3.33261e-06
2.76634e-05
-3.7935e-06
2.84332e-05
-4.3298e-06
2.93018e-05
-4.95691e-06
3.02829e-05
-5.69424e-06
3.13919e-05
-6.56655e-06
3.26459e-05
-7.60594e-06
3.40631e-05
-8.85442e-06
3.5661e-05
-1.03677e-05
3.74529e-05
-1.22206e-05
3.94391e-05
-1.45132e-05
4.15914e-05
-1.73794e-05
4.38225e-05
-2.09939e-05
4.59328e-05
-2.55729e-05
4.75292e-05
-3.13564e-05
4.79118e-05
-3.85485e-05
4.5972e-05
-4.71717e-05
4.03071e-05
-5.67486e-05
3.01132e-05
-6.57751e-05
1.67855e-05
-7.16612e-05
3.1302e-06
-7.24739e-05
-7.56971e-06
-6.77319e-05
-1.35762e-05
-5.91126e-05
-1.55891e-05
-4.94375e-05
-1.50635e-05
-4.04438e-05
-1.31913e-05
-3.27676e-05
-1.07482e-05
-2.64689e-05
-8.18556e-06
-2.1375e-05
-5.74291e-06
-1.72479e-05
-3.53585e-06
-1.38612e-05
-1.61391e-06
-1.10348e-05
-8.63782e-06
9.03636e-08
-5.11097e-07
2.65276e-07
-1.0478e-06
6.11666e-07
-2.0455e-06
1.21702e-06
-3.49657e-06
2.16423e-06
-5.37114e-06
3.52689e-06
-7.616e-06
5.36343e-06
-1.01511e-05
7.71086e-06
-1.28689e-05
1.05791e-05
-1.56379e-05
1.39472e-05
-1.83102e-05
1.7762e-05
-2.07331e-05
2.19412e-05
-2.27643e-05
2.63791e-05
-2.42856e-05
3.0956e-05
-2.52151e-05
3.55483e-05
-2.55127e-05
4.00371e-05
-2.51809e-05
4.43166e-05
-2.42591e-05
4.82984e-05
-2.28156e-05
5.19138e-05
-2.09375e-05
5.51143e-05
-1.87216e-05
5.78699e-05
-1.62665e-05
6.01671e-05
-1.36665e-05
6.2006e-05
-1.10071e-05
6.33979e-05
-8.36307e-06
6.43623e-05
-5.79673e-06
6.49247e-05
-3.35788e-06
6.5115e-05
-1.08393e-06
6.49654e-05
9.99541e-07
6.451e-05
2.87688e-06
6.37837e-05
4.53931e-06
6.28218e-05
5.98363e-06
6.16587e-05
7.21158e-06
6.03279e-05
8.22911e-06
5.88611e-05
9.0456e-06
5.7288e-05
9.67312e-06
5.56363e-05
1.01257e-05
5.39312e-05
1.04186e-05
5.21956e-05
1.05681e-05
5.04499e-05
1.05905e-05
4.8712e-05
1.05021e-05
4.69977e-05
1.03189e-05
4.53202e-05
1.0056e-05
4.36907e-05
9.72757e-06
4.21185e-05
9.34689e-06
4.06108e-05
8.92602e-06
3.91732e-05
8.47583e-06
3.78098e-05
8.00601e-06
3.6523e-05
7.52504e-06
3.53144e-05
7.04029e-06
3.41841e-05
6.55802e-06
3.31316e-05
6.08348e-06
3.21555e-05
5.62099e-06
3.12537e-05
5.174e-06
3.04236e-05
4.74522e-06
2.96623e-05
4.33665e-06
2.89665e-05
3.9497e-06
2.83327e-05
3.58526e-06
2.77572e-05
3.24378e-06
2.72365e-05
2.9253e-06
2.67668e-05
2.62959e-06
2.63445e-05
2.35613e-06
2.5966e-05
2.10418e-06
2.56278e-05
1.87288e-06
2.53268e-05
1.66122e-06
2.50597e-05
1.46809e-06
2.48236e-05
1.29236e-06
2.46157e-05
1.13282e-06
2.44334e-05
9.88286e-07
2.42744e-05
8.57561e-07
2.41364e-05
7.39471e-07
2.40175e-05
6.32869e-07
2.39159e-05
5.36647e-07
2.38298e-05
4.49739e-07
2.37578e-05
3.71127e-07
2.36987e-05
2.99839e-07
2.36512e-05
2.34955e-07
2.36144e-05
1.756e-07
2.35874e-05
1.20947e-07
2.35695e-05
7.02154e-08
2.35601e-05
2.26637e-08
2.35588e-05
-2.24049e-08
2.35651e-05
-6.56605e-08
2.35788e-05
-1.07761e-07
2.35998e-05
-1.49349e-07
2.3628e-05
-1.91061e-07
2.36636e-05
-2.33531e-07
2.37067e-05
-2.774e-07
2.37576e-05
-3.23324e-07
2.38166e-05
-3.71984e-07
2.38843e-05
-4.24092e-07
2.39614e-05
-4.80409e-07
2.40485e-05
-5.41753e-07
2.41466e-05
-6.09014e-07
2.42567e-05
-6.8317e-07
2.438e-05
-7.65306e-07
2.45178e-05
-8.56637e-07
2.46717e-05
-9.58528e-07
2.48434e-05
-1.07253e-06
2.5035e-05
-1.20041e-06
2.52486e-05
-1.3442e-06
2.54869e-05
-1.50624e-06
2.57527e-05
-1.68924e-06
2.60491e-05
-1.89634e-06
2.638e-05
-2.13126e-06
2.67492e-05
-2.39834e-06
2.71614e-05
-2.70271e-06
2.76217e-05
-3.05049e-06
2.81359e-05
-3.44899e-06
2.87103e-05
-3.907e-06
2.93519e-05
-4.43518e-06
3.00687e-05
-5.04654e-06
3.08688e-05
-5.75706e-06
3.17612e-05
-6.5866e-06
3.27546e-05
-7.55994e-06
3.3857e-05
-8.70836e-06
3.50741e-05
-1.00715e-05
3.64061e-05
-1.16998e-05
3.78431e-05
-1.36575e-05
3.93555e-05
-1.60256e-05
4.08796e-05
-1.89035e-05
4.22941e-05
-2.24083e-05
4.33857e-05
-2.66646e-05
4.38074e-05
-3.17782e-05
4.30397e-05
-3.77807e-05
4.03945e-05
-4.45265e-05
3.51703e-05
-5.15244e-05
2.71414e-05
-5.77462e-05
1.72022e-05
-6.1722e-05
7.06676e-06
-6.23385e-05
-1.32031e-06
-5.93448e-05
-6.82648e-06
-5.36064e-05
-9.57404e-06
-4.66899e-05
-1.02673e-05
-3.97505e-05
-9.639e-06
-3.33959e-05
-8.26311e-06
-2.78448e-05
-6.53711e-06
-2.3101e-05
-4.71661e-06
-1.90684e-05
-2.95934e-06
-1.56185e-05
-1.36344e-06
-1.26307e-05
-1.00013e-05
3.39797e-08
-5.45076e-07
1.46751e-07
-1.16057e-06
4.36138e-07
-2.33489e-06
1.00004e-06
-4.06047e-06
1.932e-06
-6.3031e-06
3.31578e-06
-8.99978e-06
5.21867e-06
-1.2054e-05
7.68393e-06
-1.53342e-05
1.07236e-05
-1.86776e-05
1.43132e-05
-2.18998e-05
1.83906e-05
-2.48106e-05
2.28591e-05
-2.72328e-05
2.75955e-05
-2.9022e-05
3.24617e-05
-3.00813e-05
3.73173e-05
-3.03683e-05
4.20308e-05
-2.98945e-05
4.64886e-05
-2.87169e-05
5.05991e-05
-2.69261e-05
5.42952e-05
-2.46336e-05
5.7533e-05
-2.19594e-05
6.02893e-05
-1.90229e-05
6.25586e-05
-1.59358e-05
6.43491e-05
-1.27976e-05
6.56796e-05
-9.69349e-06
6.6576e-05
-6.69315e-06
6.70694e-05
-3.85125e-06
6.71934e-05
-1.20802e-06
6.69831e-05
1.20989e-06
6.6474e-05
3.38595e-06
6.57024e-05
5.31099e-06
6.47038e-05
6.98224e-06
6.35128e-05
8.40258e-06
6.21623e-05
9.5796e-06
6.06832e-05
1.05246e-05
5.91045e-05
1.12519e-05
5.74525e-05
1.17777e-05
5.57513e-05
1.21198e-05
5.40227e-05
1.22967e-05
5.22861e-05
1.23271e-05
5.05584e-05
1.22298e-05
4.88546e-05
1.20227e-05
4.71873e-05
1.17233e-05
4.55673e-05
1.13476e-05
4.40033e-05
1.09109e-05
4.25024e-05
1.04269e-05
4.107e-05
9.90821e-06
3.97101e-05
9.36592e-06
3.84253e-05
8.80986e-06
3.7217e-05
8.24856e-06
3.60857e-05
7.68933e-06
3.50309e-05
7.13831e-06
3.40513e-05
6.60058e-06
3.31451e-05
6.08023e-06
3.23098e-05
5.58049e-06
3.15427e-05
5.10377e-06
3.08406e-05
4.65179e-06
3.02002e-05
4.22567e-06
2.96179e-05
3.82599e-06
2.90903e-05
3.45291e-06
2.86138e-05
3.10617e-06
2.81846e-05
2.78524e-06
2.77995e-05
2.48933e-06
2.74549e-05
2.21745e-06
2.71477e-05
1.96847e-06
2.68747e-05
1.74112e-06
2.66329e-05
1.5341e-06
2.64197e-05
1.34605e-06
2.62324e-05
1.17557e-06
2.60687e-05
1.02129e-06
2.59263e-05
8.81839e-07
2.58033e-05
7.55896e-07
2.56978e-05
6.42166e-07
2.56081e-05
5.39408e-07
2.55328e-05
4.46433e-07
2.54705e-05
3.62107e-07
2.54201e-05
2.85352e-07
2.53806e-05
2.15148e-07
2.5351e-05
1.50525e-07
2.53306e-05
9.05669e-08
2.53189e-05
3.44055e-08
2.53153e-05
-1.87808e-08
2.53194e-05
-6.97767e-08
2.5331e-05
-1.19347e-07
2.53499e-05
-1.68242e-07
2.5376e-05
-2.17203e-07
2.54094e-05
-2.66967e-07
2.54503e-05
-3.18279e-07
2.54989e-05
-3.71897e-07
2.55555e-05
-4.28608e-07
2.56207e-05
-4.89233e-07
2.56949e-05
-5.54645e-07
2.57789e-05
-6.25778e-07
2.58736e-05
-7.03648e-07
2.59797e-05
-7.89364e-07
2.60986e-05
-8.84154e-07
2.62313e-05
-9.89385e-07
2.63794e-05
-1.10659e-06
2.65444e-05
-1.2375e-06
2.6728e-05
-1.38408e-06
2.69324e-05
-1.54858e-06
2.71597e-05
-1.73356e-06
2.74125e-05
-1.942e-06
2.76935e-05
-2.17732e-06
2.80057e-05
-2.44352e-06
2.83526e-05
-2.74525e-06
2.87379e-05
-3.08798e-06
2.91656e-05
-3.47816e-06
2.964e-05
-3.92341e-06
3.01658e-05
-4.4328e-06
3.07478e-05
-5.01721e-06
3.13909e-05
-5.68967e-06
3.20999e-05
-6.46598e-06
3.28786e-05
-7.3653e-06
3.37296e-05
-8.41102e-06
3.4653e-05
-9.63173e-06
3.56439e-05
-1.10624e-05
3.66897e-05
-1.27456e-05
3.77648e-05
-1.47326e-05
3.88227e-05
-1.70835e-05
3.9785e-05
-1.98659e-05
4.05258e-05
-2.31492e-05
4.08535e-05
-2.69922e-05
4.04936e-05
-3.14183e-05
3.90866e-05
-3.63737e-05
3.62238e-05
-4.16637e-05
3.15715e-05
-4.68721e-05
2.513e-05
-5.13048e-05
1.75024e-05
-5.40944e-05
9.75416e-06
-5.45902e-05
3.05723e-06
-5.26479e-05
-1.81368e-06
-4.87355e-05
-4.78153e-06
-4.37221e-05
-6.15752e-06
-3.83746e-05
-6.37001e-06
-3.31834e-05
-5.81444e-06
-2.84003e-05
-4.80564e-06
-2.41098e-05
-3.57509e-06
-2.02989e-05
-2.28771e-06
-1.69059e-05
-1.06348e-06
-1.38549e-05
-1.10647e-05
-5.1154e-08
-4.93922e-07
-3.20068e-08
-1.17972e-06
1.67264e-07
-2.53416e-06
6.57184e-07
-4.55039e-06
1.54367e-06
-7.18958e-06
2.92248e-06
-1.03786e-05
4.87155e-06
-1.40031e-05
7.44186e-06
-1.79045e-05
1.06482e-05
-2.18839e-05
1.44622e-05
-2.57139e-05
1.88106e-05
-2.91589e-05
2.35788e-05
-3.2001e-05
2.8622e-05
-3.40652e-05
3.37798e-05
-3.5239e-05
3.88921e-05
-3.54806e-05
4.38131e-05
-3.48155e-05
4.8421e-05
-3.33248e-05
5.26225e-05
-3.11276e-05
5.63536e-05
-2.83646e-05
5.95775e-05
-2.51832e-05
6.22804e-05
-2.17258e-05
6.44669e-05
-1.81223e-05
6.61555e-05
-1.44862e-05
6.7374e-05
-1.0912e-05
6.81565e-05
-7.47562e-06
6.85401e-05
-4.23492e-06
6.85634e-05
-1.23126e-06
6.8264e-05
1.50923e-06
6.76798e-05
3.97014e-06
6.68481e-05
6.14273e-06
6.58048e-05
8.02552e-06
6.45842e-05
9.62322e-06
6.32182e-05
1.09456e-05
6.17364e-05
1.20064e-05
6.01661e-05
1.28222e-05
5.8532e-05
1.34118e-05
5.68563e-05
1.37955e-05
5.5159e-05
1.3994e-05
5.34578e-05
1.40283e-05
5.17684e-05
1.39192e-05
5.01041e-05
1.3687e-05
4.84767e-05
1.33507e-05
4.68959e-05
1.29284e-05
4.53696e-05
1.24371e-05
4.39045e-05
1.1892e-05
4.25056e-05
1.13072e-05
4.11764e-05
1.06951e-05
3.99196e-05
1.00667e-05
3.87364e-05
9.43171e-06
3.76274e-05
8.79833e-06
3.65922e-05
8.17356e-06
3.56296e-05
7.56318e-06
3.47379e-05
6.97189e-06
3.3915e-05
6.40342e-06
3.31582e-05
5.86057e-06
3.24646e-05
5.34539e-06
3.1831e-05
4.85921e-06
3.12542e-05
4.40278e-06
3.07308e-05
3.97632e-06
3.02573e-05
3.57964e-06
2.98304e-05
3.21218e-06
2.94467e-05
2.87308e-06
2.91028e-05
2.56128e-06
2.87958e-05
2.27552e-06
2.85225e-05
2.01441e-06
2.82801e-05
1.77648e-06
2.8066e-05
1.5602e-06
2.78775e-05
1.36401e-06
2.77125e-05
1.18636e-06
2.75686e-05
1.0257e-06
2.7444e-05
8.80533e-07
2.73367e-05
7.49385e-07
2.72453e-05
6.30847e-07
2.71682e-05
5.23566e-07
2.7104e-05
4.2625e-07
2.70517e-05
3.37671e-07
2.70102e-05
2.56663e-07
2.69786e-05
1.8212e-07
2.69562e-05
1.12995e-07
2.69423e-05
4.82919e-08
2.69364e-05
-1.29316e-08
2.69382e-05
-7.15719e-08
2.69474e-05