/*--------------------------------*- C++ -*----------------------------------*\
  =========                 |
  \\      /  F ield         | OpenFOAM: The Open Source CFD Toolbox
   \\    /   O peration     | Website:  https://openfoam.org
    \\  /    A nd           | Version:  12
     \\/     M anipulation  |
\*---------------------------------------------------------------------------*/
FoamFile
{
    format      ascii;
    class       volVectorField;
    location    "40";
    object      U;
}
// * * * * * * * * * * * * * * * * * * * * * * * * * * * * * * * * * * * * * //

dimensions      [0 1 -1 0 0 0 0];

internalField   nonuniform List<vector> 
4480
(
(-1.01195e-05 0 8.2252e-06)
(-9.72392e-06 0 -8.20936e-06)
(1.97346e-05 0 -3.73407e-05)
(9.91764e-05 0 -7.84481e-05)
(0.000244782 0 -0.000130887)
(0.000471568 0 -0.000193208)
(0.000792218 0 -0.000263296)
(0.00121602 0 -0.000338395)
(0.00174795 0 -0.000415161)
(0.0023879 0 -0.000489824)
(0.00313024 0 -0.000558444)
(0.00396378 0 -0.000617235)
(0.00487222 0 -0.000662889)
(0.00583499 0 -0.000692866)
(0.00682859 0 -0.000705601)
(0.007828 0 -0.00070059)
(0.00880821 0 -0.000678362)
(0.00974564 0 -0.000640356)
(0.0106193 0 -0.000588718)
(0.0114116 0 -0.000526078)
(0.012109 0 -0.000455318)
(0.012702 0 -0.000379357)
(0.0131852 0 -0.000300988)
(0.013557 0 -0.000222747)
(0.0138194 0 -0.000146826)
(0.0139767 0 -7.50077e-05)
(0.0140357 0 -8.55517e-06)
(0.0140052 0 5.1795e-05)
(0.0138937 0 0.000105663)
(0.0137105 0 0.000152826)
(0.0134653 0 0.000193232)
(0.0131677 0 0.000226976)
(0.0128268 0 0.000254293)
(0.0124516 0 0.000275527)
(0.0120503 0 0.000291106)
(0.0116308 0 0.000301516)
(0.0111998 0 0.000307281)
(0.0107636 0 0.00030894)
(0.0103277 0 0.000307034)
(0.00989662 0 0.000302088)
(0.00947438 0 0.000294603)
(0.00906421 0 0.000285048)
(0.00866875 0 0.000273855)
(0.00829001 0 0.000261413)
(0.00792953 0 0.000248072)
(0.00758834 0 0.000234138)
(0.00726711 0 0.000219877)
(0.00696612 0 0.000205515)
(0.00668539 0 0.000191243)
(0.00642467 0 0.00017722)
(0.00618352 0 0.000163573)
(0.00596133 0 0.000150405)
(0.00575738 0 0.000137791)
(0.00557084 0 0.000125791)
(0.00540081 0 0.000114441)
(0.00524636 0 0.000103766)
(0.00510652 0 9.37769e-05)
(0.00498034 0 8.44724e-05)
(0.00486683 0 7.58433e-05)
(0.00476507 0 6.7873e-05)
(0.00467414 0 6.05389e-05)
(0.00459315 0 5.38139e-05)
(0.00452126 0 4.76677e-05)
(0.00445769 0 4.20674e-05)
(0.00440168 0 3.6979e-05)
(0.00435254 0 3.23671e-05)
(0.00430961 0 2.81965e-05)
(0.0042723 0 2.44321e-05)
(0.00424005 0 2.10395e-05)
(0.00421236 0 1.79851e-05)
(0.00418879 0 1.52365e-05)
(0.00416891 0 1.27627e-05)
(0.00415235 0 1.05341e-05)
(0.0041388 0 8.52238e-06)
(0.00412797 0 6.70094e-06)
(0.00411959 0 5.04452e-06)
(0.00411346 0 3.52933e-06)
(0.00410939 0 2.13299e-06)
(0.00410722 0 8.34863e-07)
(0.00410684 0 -3.8378e-07)
(0.00410813 0 -1.54217e-06)
(0.00411104 0 -2.65967e-06)
(0.00411551 0 -3.75415e-06)
(0.00412152 0 -4.84323e-06)
(0.00412907 0 -5.94435e-06)
(0.0041382 0 -7.07497e-06)
(0.00414896 0 -8.25293e-06)
(0.00416142 0 -9.49661e-06)
(0.0041757 0 -1.08253e-05)
(0.00419192 0 -1.22596e-05)
(0.00421025 0 -1.38216e-05)
(0.00423088 0 -1.55354e-05)
(0.00425405 0 -1.74276e-05)
(0.00428003 0 -1.95278e-05)
(0.00430913 0 -2.18694e-05)
(0.00434171 0 -2.44903e-05)
(0.0043782 0 -2.74336e-05)
(0.00441909 0 -3.07493e-05)
(0.00446493 0 -3.4495e-05)
(0.00451637 0 -3.87382e-05)
(0.00457417 0 -4.3558e-05)
(0.0046392 0 -4.90478e-05)
(0.00471247 0 -5.53184e-05)
(0.00479516 0 -6.25024e-05)
(0.00488865 0 -7.07589e-05)
(0.00499458 0 -8.02804e-05)
(0.00511487 0 -9.13012e-05)
(0.00525181 0 -0.000104108)
(0.00540812 0 -0.000119054)
(0.00558708 0 -0.000136576)
(0.00579266 0 -0.00015722)
(0.00602967 0 -0.000181665)
(0.00630401 0 -0.000210764)
(0.00662292 0 -0.000245572)
(0.00699539 0 -0.00028739)
(0.00743256 0 -0.000337777)
(0.00794823 0 -0.000398524)
(0.00855941 0 -0.000471559)
(0.00928766 0 -0.000559199)
(0.0101625 0 -0.00066696)
(0.0112204 0 -0.000813606)
(0.0124765 0 -0.0010507)
(0.0139559 0 -0.00151689)
(0.0164724 0 -0.00287391)
(0.0240669 0 -0.00869814)
(0.0381002 0 -0.0316533)
(0.0426556 0 -0.0804121)
(0.019805 0 -0.101252)
(-0.0093261 0 -0.103835)
(-0.0345263 0 -0.0844782)
(-0.0304193 0 -0.0329029)
(-0.0155133 0 -0.00925312)
(-0.0075476 0 -0.0030118)
(-0.00507178 0 -0.00149015)
(-0.00372376 0 -0.000959813)
(-0.00261451 0 -0.000697659)
(-0.00171457 0 -0.000538038)
(-0.00100759 0 -0.000417859)
(-0.000467207 0 -0.000316097)
(-0.000209958 0 -0.000205845)
(2.76332e-06 0 8.85731e-06)
(1.85554e-05 0 -2.56595e-05)
(7.36417e-05 0 -8.63523e-05)
(0.000187485 0 -0.000172423)
(0.000379743 0 -0.000282254)
(0.000668298 0 -0.000412808)
(0.00106797 0 -0.000559684)
(0.00158941 0 -0.000717116)
(0.00223812 0 -0.000878097)
(0.00301357 0 -0.00103473)
(0.00390874 0 -0.00117874)
(0.00491015 0 -0.00130218)
(0.00599845 0 -0.0013981)
(0.00714946 0 -0.00146116)
(0.00833571 0 -0.00148805)
(0.0095281 0 -0.00147772)
(0.0106976 0 -0.00143126)
(0.0118171 0 -0.00135167)
(0.012862 0 -0.00124345)
(0.0138122 0 -0.00111209)
(0.0146517 0 -0.000963628)
(0.0153693 0 -0.000804156)
(0.0159584 0 -0.000639511)
(0.0164169 0 -0.000474987)
(0.0167463 0 -0.000315155)
(0.0169512 0 -0.000163738)
(0.0170391 0 -2.3485e-05)
(0.0170194 0 0.000104011)
(0.0169023 0 0.000217975)
(0.0166983 0 0.000317888)
(0.0164188 0 0.000403611)
(0.0160749 0 0.000475337)
(0.0156775 0 0.000533545)
(0.0152371 0 0.000578943)
(0.0147638 0 0.000612417)
(0.0142665 0 0.000634979)
(0.0137538 0 0.000647717)
(0.013233 0 0.000651761)
(0.012711 0 0.000648238)
(0.0121933 0 0.000638253)
(0.0116849 0 0.000622857)
(0.0111899 0 0.000603039)
(0.0107116 0 0.000579708)
(0.0102527 0 0.000553689)
(0.00981496 0 0.00052572)
(0.00939997 0 0.00049645)
(0.00900861 0 0.000466446)
(0.00864135 0 0.00043619)
(0.00829831 0 0.00040609)
(0.00797928 0 0.000376485)
(0.00768382 0 0.00034765)
(0.00741126 0 0.000319801)
(0.00716078 0 0.000293109)
(0.00693141 0 0.000267695)
(0.00672212 0 0.000243645)
(0.0065318 0 0.000221012)
(0.00635931 0 0.000199821)
(0.00620349 0 0.000180072)
(0.00606319 0 0.000161748)
(0.00593727 0 0.000144814)
(0.00582463 0 0.000129225)
(0.0057242 0 0.000114924)
(0.00563496 0 0.000101849)
(0.00555594 0 8.99295e-05)
(0.00548625 0 7.90948e-05)
(0.00542501 0 6.92708e-05)
(0.00537144 0 6.03832e-05)
(0.00532481 0 5.2358e-05)
(0.00528444 0 4.51225e-05)
(0.00524972 0 3.86059e-05)
(0.00522008 0 3.27398e-05)
(0.00519503 0 2.74583e-05)
(0.0051741 0 2.26989e-05)
(0.0051569 0 1.84017e-05)
(0.00514306 0 1.45102e-05)
(0.00513229 0 1.09708e-05)
(0.0051243 0 7.73307e-06)
(0.00511888 0 4.74955e-06)
(0.00511582 0 1.97595e-06)
(0.00511498 0 -6.28309e-07)
(0.00511623 0 -3.1031e-06)
(0.00511948 0 -5.48877e-06)
(0.00512467 0 -7.82396e-06)
(0.00513177 0 -1.01462e-05)
(0.00514079 0 -1.24924e-05)
(0.00515175 0 -1.48998e-05)
(0.00516472 0 -1.74062e-05)
(0.0051798 0 -2.00507e-05)
(0.00519711 0 -2.28743e-05)
(0.00521681 0 -2.59204e-05)
(0.0052391 0 -2.9236e-05)
(0.00526422 0 -3.28721e-05)
(0.00529244 0 -3.6885e-05)
(0.0053241 0 -4.13374e-05)
(0.00535958 0 -4.62997e-05)
(0.00539932 0 -5.1852e-05)
(0.00544384 0 -5.80856e-05)
(0.00549371 0 -6.51056e-05)
(0.00554962 0 -7.30339e-05)
(0.00561237 0 -8.20126e-05)
(0.00568284 0 -9.22083e-05)
(0.0057621 0 -0.000103818)
(0.00585138 0 -0.000117075)
(0.00595209 0 -0.000132258)
(0.0060659 0 -0.000149702)
(0.00619477 0 -0.000169813)
(0.00634102 0 -0.000193083)
(0.00650738 0 -0.000220117)
(0.00669713 0 -0.000251659)
(0.00691421 0 -0.000288637)
(0.00716334 0 -0.00033221)
(0.00745033 0 -0.000383841)
(0.00778229 0 -0.000445388)
(0.00816806 0 -0.000519231)
(0.00861881 0 -0.000608445)
(0.00914884 0 -0.000717058)
(0.00977704 0 -0.000850458)
(0.0105292 0 -0.00101615)
(0.0114429 0 -0.0012256)
(0.0125771 0 -0.00149962)
(0.0140268 0 -0.00188306)
(0.0159422 0 -0.00247547)
(0.0186059 0 -0.00349254)
(0.0227588 0 -0.00552633)
(0.0297782 0 -0.0107518)
(0.037377 0 -0.0258486)
(0.0342529 0 -0.0579704)
(0.016858 0 -0.0757599)
(-0.00599043 0 -0.0775137)
(-0.024785 0 -0.0609438)
(-0.0281252 0 -0.0272418)
(-0.0200258 0 -0.0112895)
(-0.0126765 0 -0.00566275)
(-0.00840678 0 -0.00343705)
(-0.00573084 0 -0.00232618)
(-0.00386355 0 -0.00168588)
(-0.00250723 0 -0.00127017)
(-0.00149693 0 -0.00096333)
(-0.000731739 0 -0.000711004)
(-0.000337514 0 -0.000481021)
(1.55213e-05 0 -1.00758e-05)
(4.58722e-05 0 -7.40289e-05)
(0.000125759 0 -0.000187952)
(0.000271183 0 -0.000349944)
(0.000504856 0 -0.000556595)
(0.000847342 0 -0.000802043)
(0.00131543 0 -0.00107788)
(0.00192107 0 -0.00137315)
(0.00267022 0 -0.00167463)
(0.00356196 0 -0.00196747)
(0.00458795 0 -0.00223628)
(0.00573254 0 -0.00246629)
(0.00697352 0 -0.00264468)
(0.00828337 0 -0.00276168)
(0.00963108 0 -0.00281131)
(0.0109841 0 -0.00279172)
(0.0123101 0 -0.00270506)
(0.0135789 0 -0.00255689)
(0.014764 0 -0.00235552)
(0.0158431 0 -0.00211104)
(0.0167987 0 -0.00183448)
(0.0176188 0 -0.00153702)
(0.0182961 0 -0.00122935)
(0.018828 0 -0.000921183)
(0.019216 0 -0.000620948)
(0.0194649 0 -0.000335539)
(0.0195824 0 -7.01674e-05)
(0.0195784 0 0.000171866)
(0.019464 0 0.000388799)
(0.0192508 0 0.000579602)
(0.0189512 0 0.000743926)
(0.0185774 0 0.000882047)
(0.0181414 0 0.000994779)
(0.0176551 0 0.00108337)
(0.0171295 0 0.00114942)
(0.0165748 0 0.00119477)
(0.0160006 0 0.00122141)
(0.0154155 0 0.00123142)
(0.0148269 0 0.00122692)
(0.0142416 0 0.00120995)
(0.0136653 0 0.00118249)
(0.0131027 0 0.00114642)
(0.0125578 0 0.00110345)
(0.0120338 0 0.00105515)
(0.011533 0 0.00100294)
(0.0110573 0 0.000948058)
(0.0106078 0 0.000891606)
(0.0101853 0 0.000834517)
(0.00978996 0 0.000777586)
(0.00942175 0 0.000721472)
(0.00908024 0 0.000666719)
(0.00876475 0 0.000613756)
(0.00847441 0 0.00056292)
(0.00820821 0 0.000514458)
(0.00796499 0 0.000468546)
(0.00774355 0 0.000425295)
(0.00754261 0 0.00038476)
(0.00736087 0 0.000346953)
(0.00719703 0 0.000311845)
(0.00704982 0 0.000279378)
(0.00691796 0 0.000249467)
(0.00680025 0 0.00022201)
(0.00669552 0 0.000196889)
(0.00660267 0 0.000173977)
(0.00652065 0 0.000153136)
(0.00644848 0 0.00013423)
(0.00638524 0 0.000117115)
(0.0063301 0 0.000101653)
(0.00628226 0 8.77055e-05)
(0.00624102 0 7.51371e-05)
(0.00620573 0 6.38176e-05)
(0.0061758 0 5.36216e-05)
(0.00615071 0 4.44295e-05)
(0.00612999 0 3.6127e-05)
(0.00611321 0 2.86059e-05)
(0.00610003 0 2.17639e-05)
(0.00609012 0 1.55044e-05)
(0.00608321 0 9.73632e-06)
(0.00607909 0 4.37428e-06)
(0.00607756 0 -6.61191e-07)
(0.00607848 0 -5.44566e-06)
(0.00608175 0 -1.00547e-05)
(0.00608729 0 -1.45627e-05)
(0.00609506 0 -1.9042e-05)
(0.00610506 0 -2.35634e-05)
(0.00611732 0 -2.81982e-05)
(0.00613192 0 -3.30189e-05)
(0.00614896 0 -3.81002e-05)
(0.00616857 0 -4.35206e-05)
(0.00619095 0 -4.9363e-05)
(0.0062163 0 -5.5717e-05)
(0.00624491 0 -6.26798e-05)
(0.00627708 0 -7.03586e-05)
(0.00631318 0 -7.88725e-05)
(0.00635365 0 -8.83556e-05)
(0.00639898 0 -9.89593e-05)
(0.00644975 0 -0.000110857)
(0.00650662 0 -0.000124247)
(0.00657035 0 -0.000139361)
(0.00664182 0 -0.000156466)
(0.00672205 0 -0.000175877)
(0.0068122 0 -0.000197964)
(0.00691363 0 -0.000223167)
(0.00702792 0 -0.000252009)
(0.00715692 0 -0.000285119)
(0.00730276 0 -0.000323257)
(0.00746799 0 -0.000367346)
(0.0076556 0 -0.000418517)
(0.00786915 0 -0.000478166)
(0.00811288 0 -0.000548032)
(0.00839193 0 -0.000630299)
(0.00871253 0 -0.000727739)
(0.00908234 0 -0.00084392)
(0.00951091 0 -0.000983502)
(0.0100104 0 -0.0011527)
(0.0105963 0 -0.00136006)
(0.0112897 0 -0.00161777)
(0.0121192 0 -0.00194419)
(0.0131258 0 -0.00236894)
(0.0143699 0 -0.0029437)
(0.0159405 0 -0.00376515)
(0.0179641 0 -0.005019)
(0.0206154 0 -0.00705925)
(0.0241102 0 -0.0105889)
(0.0283376 0 -0.0171082)
(0.0310359 0 -0.0292419)
(0.026684 0 -0.0468162)
(0.0141064 0 -0.0579741)
(-0.00236601 0 -0.0590947)
(-0.0159199 0 -0.0487539)
(-0.0205271 0 -0.0305869)
(-0.0176527 0 -0.0178695)
(-0.01318 0 -0.0109356)
(-0.00949652 0 -0.00712795)
(-0.00672659 0 -0.00490883)
(-0.00464993 0 -0.00353876)
(-0.00308313 0 -0.00263171)
(-0.0018821 0 -0.00198003)
(-0.000943676 0 -0.00147385)
(-0.000433318 0 -0.00105708)
(2.52672e-05 0 -4.69365e-05)
(6.6646e-05 0 -0.000142393)
(0.00016564 0 -0.000313584)
(0.000335875 0 -0.000557717)
(0.000602843 0 -0.000869407)
(0.000989703 0 -0.00123968)
(0.00151529 0 -0.00165568)
(0.00219294 0 -0.00210065)
(0.00302923 0 -0.00255441)
(0.00402288 0 -0.00299442)
(0.00516422 0 -0.00339739)
(0.00643531 0 -0.00374112)
(0.00781089 0 -0.00400652)
(0.00925995 0 -0.00417919)
(0.0107478 0 -0.00425059)
(0.0122385 0 -0.00421836)
(0.0136966 0 -0.00408611)
(0.0150897 0 -0.00386249)
(0.0163893 0 -0.00356005)
(0.017572 0 -0.00319389)
(0.0186198 0 -0.00278034)
(0.0195203 0 -0.00233588)
(0.0202662 0 -0.00187616)
(0.0208552 0 -0.00141539)
(0.021289 0 -0.000965845)
(0.021573 0 -0.000537617)
(0.0217151 0 -0.00013841)
(0.0217255 0 0.000226625)
(0.0216161 0 0.000554598)
(0.0213991 0 0.000843898)
(0.0210876 0 0.00109391)
(0.0206945 0 0.00130494)
(0.0202328 0 0.00147809)
(0.019715 0 0.00161513)
(0.0191528 0 0.00171834)
(0.0185574 0 0.00179036)
(0.017939 0 0.00183413)
(0.017307 0 0.00185268)
(0.0166695 0 0.0018491)
(0.0160339 0 0.00182646)
(0.0154065 0 0.00178769)
(0.0147926 0 0.00173558)
(0.0141968 0 0.00167271)
(0.0136225 0 0.00160147)
(0.0130726 0 0.001524)
(0.0125492 0 0.00144219)
(0.0120538 0 0.00135772)
(0.0115873 0 0.00127204)
(0.0111501 0 0.00118636)
(0.0107422 0 0.00110172)
(0.0103633 0 0.00101897)
(0.0100127 0 0.000938784)
(0.00968967 0 0.000861695)
(0.00939304 0 0.000788104)
(0.00912167 0 0.000718295)
(0.00887426 0 0.000652456)
(0.00864946 0 0.000590687)
(0.00844589 0 0.000533018)
(0.00826213 0 0.000479418)
(0.0080968 0 0.000429808)
(0.00794853 0 0.000384068)
(0.00781599 0 0.00034205)
(0.00769791 0 0.000303579)
(0.00759307 0 0.000268467)
(0.00750032 0 0.000236509)
(0.00741858 0 0.000207498)
(0.00734684 0 0.000181222)
(0.00728415 0 0.000157469)
(0.00722967 0 0.000136031)
(0.00718259 0 0.000116702)
(0.00714219 0 9.92843e-05)
(0.00710782 0 8.35886e-05)
(0.00707889 0 6.94321e-05)
(0.00705488 0 5.66411e-05)
(0.00703532 0 4.50508e-05)
(0.0070198 0 3.4505e-05)
(0.00700798 0 2.48565e-05)
(0.00699953 0 1.5966e-05)
(0.00699422 0 7.70257e-06)
(0.00699183 0 -5.69015e-08)
(0.00699221 0 -7.4273e-06)
(0.00699521 0 -1.45221e-05)
(0.00700076 0 -2.14553e-05)
(0.0070088 0 -2.83368e-05)
(0.00701934 0 -3.52751e-05)
(0.0070324 0 -4.23787e-05)
(0.00704805 0 -4.97581e-05)
(0.00706641 0 -5.7527e-05)
(0.00708761 0 -6.58044e-05)
(0.00711185 0 -7.47162e-05)
(0.00713937 0 -8.43977e-05)
(0.00717046 0 -9.4996e-05)
(0.00720545 0 -0.000106673)
(0.00724473 0 -0.000119607)
(0.00728877 0 -0.000134001)
(0.00733809 0 -0.000150081)
(0.00739332 0 -0.000168107)
(0.00745514 0 -0.000188376)
(0.00752438 0 -0.000211231)
(0.00760195 0 -0.000237072)
(0.00768893 0 -0.000266366)
(0.00778655 0 -0.00029966)
(0.00789621 0 -0.000337605)
(0.00801957 0 -0.000380972)
(0.00815852 0 -0.000430686)
(0.00831527 0 -0.000487862)
(0.00849241 0 -0.000553852)
(0.00869298 0 -0.000630308)
(0.00892055 0 -0.000719267)
(0.00917938 0 -0.000823264)
(0.00947454 0 -0.000945483)
(0.00981215 0 -0.00108998)
(0.0101996 0 -0.00126198)
(0.0106462 0 -0.00146838)
(0.0111633 0 -0.00171844)
(0.0117653 0 -0.00202496)
(0.0124711 0 -0.00240629)
(0.013305 0 -0.00288978)
(0.014299 0 -0.0035179)
(0.0154946 0 -0.0043594)
(0.0169412 0 -0.00552887)
(0.0186866 0 -0.00721865)
(0.0207476 0 -0.00974561)
(0.0230277 0 -0.0136172)
(0.0250455 0 -0.0195871)
(0.0252666 0 -0.0283671)
(0.0210551 0 -0.0388187)
(0.0119791 0 -0.0457816)
(0.000502353 0 -0.0465556)
(-0.00927355 0 -0.0402633)
(-0.013732 0 -0.0296547)
(-0.0134969 0 -0.0204981)
(-0.011333 0 -0.014159)
(-0.00887807 0 -0.00998585)
(-0.0066622 0 -0.0072303)
(-0.00480279 0 -0.00536829)
(-0.00328806 0 -0.00406013)
(-0.00205902 0 -0.00309465)
(-0.00105397 0 -0.00234612)
(-0.00048934 0 -0.0017455)
(3.01107e-05 0 -9.48869e-05)
(7.71808e-05 0 -0.000223788)
(0.000186683 0 -0.000455967)
(0.000372478 0 -0.000788174)
(0.000662852 0 -0.00121308)
(0.00108366 0 -0.00171843)
(0.00165602 0 -0.00228649)
(0.00239494 0 -0.00289405)
(0.0033078 0 -0.00351317)
(0.00439305 0 -0.00411266)
(0.00563955 0 -0.00466037)
(0.00702674 0 -0.00512584)
(0.00852586 0 -0.0054831)
(0.0101018 0 -0.00571291)
(0.0117159 0 -0.00580422)
(0.0133282 0 -0.00575463)
(0.0149005 0 -0.00556978)
(0.0163979 0 -0.00526212)
(0.0177906 0 -0.00484913)
(0.0190546 0 -0.00435145)
(0.020172 0 -0.00379119)
(0.0211309 0 -0.00319036)
(0.021925 0 -0.00256974)
(0.0225526 0 -0.00194805)
(0.0230165 0 -0.00134139)
(0.0233227 0 -0.000762967)
(0.0234799 0 -0.000222914)
(0.0234987 0 0.0002718)
(0.0233916 0 0.000717109)
(0.0231713 0 0.00111078)
(0.0228512 0 0.00145191)
(0.022445 0 0.00174081)
(0.0219659 0 0.00197889)
(0.0214269 0 0.0021684)
(0.0208403 0 0.00231231)
(0.0202176 0 0.00241409)
(0.0195695 0 0.00247757)
(0.0189056 0 0.00250677)
(0.0182347 0 0.00250579)
(0.0175645 0 0.00247869)
(0.0169017 0 0.0024294)
(0.016252 0 0.00236164)
(0.01562 0 0.00227891)
(0.0150099 0 0.00218443)
(0.0144246 0 0.00208108)
(0.0138666 0 0.00197148)
(0.0133374 0 0.00185791)
(0.0128383 0 0.00174236)
(0.0123698 0 0.00162652)
(0.011932 0 0.00151183)
(0.0115247 0 0.00139948)
(0.0111473 0 0.00129042)
(0.010799 0 0.00118541)
(0.0104787 0 0.00108502)
(0.0101853 0 0.00098966)
(0.00991745 0 0.000899619)
(0.00967375 0 0.000815051)
(0.00945275 0 0.000736016)
(0.009253 0 0.000662488)
(0.00907304 0 0.000594372)
(0.00891143 0 0.00053152)
(0.00876678 0 0.000473735)
(0.00863772 0 0.000420791)
(0.00852297 0 0.000372432)
(0.00842129 0 0.00032839)
(0.00833154 0 0.000288382)
(0.00825263 0 0.000252123)
(0.00818356 0 0.000219326)
(0.0081234 0 0.000189707)
(0.00807129 0 0.000162988)
(0.00802646 0 0.0001389)
(0.00798819 0 0.000117182)
(0.00795587 0 9.75863e-05)
(0.0079289 0 7.98745e-05)
(0.0079068 0 6.38212e-05)
(0.00788911 0 4.92128e-05)
(0.00787546 0 3.58469e-05)
(0.00786549 0 2.35328e-05)
(0.00785895 0 1.20902e-05)
(0.00785559 0 1.34913e-06)
(0.00785523 0 -8.84854e-06)
(0.00785773 0 -1.86577e-05)
(0.007863 0 -2.82333e-05)
(0.00787097 0 -3.77261e-05)
(0.00788163 0 -4.72844e-05)
(0.00789501 0 -5.70567e-05)
(0.00791117 0 -6.71938e-05)
(0.00793023 0 -7.78507e-05)
(0.00795232 0 -8.91893e-05)
(0.00797765 0 -0.000101381)
(0.00800645 0 -0.000114608)
(0.00803903 0 -0.00012907)
(0.00807572 0 -0.000144985)
(0.00811694 0 -0.000162595)
(0.00816314 0 -0.000182168)
(0.00821488 0 -0.000204011)
(0.00827278 0 -0.000228469)
(0.00833755 0 -0.000255939)
(0.00841001 0 -0.000286876)
(0.0084911 0 -0.00032181)
(0.00858189 0 -0.000361357)
(0.0086836 0 -0.000406239)
(0.00879765 0 -0.000457309)
(0.00892565 0 -0.000515576)
(0.00906946 0 -0.000582246)
(0.00923123 0 -0.000658767)
(0.00941345 0 -0.000746886)
(0.00961901 0 -0.000848734)
(0.00985127 0 -0.000966926)
(0.0101142 0 -0.00110471)
(0.0104124 0 -0.00126613)
(0.0107513 0 -0.00145634)
(0.0111376 0 -0.00168197)
(0.0115789 0 -0.00195166)
(0.0120848 0 -0.00227696)
(0.0126666 0 -0.00267364)
(0.0133377 0 -0.00316376)
(0.0141143 0 -0.00377898)
(0.0150141 0 -0.00456588)
(0.016054 0 -0.00559407)
(0.0172431 0 -0.00696824)
(0.0185651 0 -0.00884327)
(0.019944 0 -0.0114383)
(0.0211763 0 -0.0150375)
(0.0217952 0 -0.0199349)
(0.0208611 0 -0.026172)
(0.0171339 0 -0.0327715)
(0.0105245 0 -0.037173)
(0.00252367 0 -0.037714)
(-0.00457046 0 -0.0338773)
(-0.00850611 0 -0.0273251)
(-0.00949401 0 -0.0208805)
(-0.00880547 0 -0.0157034)
(-0.00743993 0 -0.0118323)
(-0.00591069 0 -0.00899995)
(-0.00445061 0 -0.00692296)
(-0.00315049 0 -0.00537145)
(-0.00202337 0 -0.00417856)
(-0.00105425 0 -0.00323279)
(-0.000495348 0 -0.00246608)
(2.85863e-05 0 -0.000145919)
(7.46276e-05 0 -0.000309451)
(0.000183797 0 -0.000606178)
(0.000373997 0 -0.00103274)
(0.000676562 0 -0.00157993)
(0.0011203 0 -0.00223202)
(0.00172903 0 -0.00296594)
(0.00251983 0 -0.0037513)
(0.00350116 0 -0.00455134)
(0.00467124 0 -0.00532498)
(0.0060172 0 -0.00602992)
(0.00751539 0 -0.00662631)
(0.00913272 0 -0.00708051)
(0.0108293 0 -0.00736812)
(0.0125613 0 -0.00747579)
(0.0142847 0 -0.00740167)
(0.0159576 0 -0.00715437)
(0.0175432 0 -0.00675111)
(0.0190105 0 -0.00621527)
(0.0203356 0 -0.00557387)
(0.0215014 0 -0.00485533)
(0.0224973 0 -0.00408761)
(0.0233184 0 -0.00329677)
(0.0239649 0 -0.00250604)
(0.024441 0 -0.00173526)
(0.0247539 0 -0.00100058)
(0.0249136 0 -0.000314352)
(0.0249313 0 0.00031483)
(0.02482 0 0.000881817)
(0.0245929 0 0.00138376)
(0.0242638 0 0.00181952)
(0.0238466 0 0.00218945)
(0.023355 0 0.00249526)
(0.0228018 0 0.00273976)
(0.0221997 0 0.00292661)
(0.0215603 0 0.00306011)
(0.0208944 0 0.00314501)
(0.0202117 0 0.00318631)
(0.0195211 0 0.00318911)
(0.0188305 0 0.00315846)
(0.0181465 0 0.0030993)
(0.0174752 0 0.0030163)
(0.0168213 0 0.00291386)
(0.0161891 0 0.00279605)
(0.0155818 0 0.00266654)
(0.0150018 0 0.00252865)
(0.014451 0 0.0023853)
(0.0139307 0 0.00223905)
(0.0134415 0 0.0020921)
(0.0129838 0 0.0019463)
(0.0125572 0 0.0018032)
(0.0121615 0 0.00166405)
(0.0117957 0 0.00152987)
(0.0114589 0 0.00140141)
(0.0111499 0 0.00127923)
(0.0108674 0 0.00116373)
(0.01061 0 0.00105512)
(0.0103763 0 0.000953522)
(0.0101648 0 0.000858908)
(0.00997393 0 0.000771179)
(0.00980232 0 0.000690159)
(0.00964851 0 0.000615612)
(0.00951108 0 0.000547255)
(0.00938871 0 0.000484774)
(0.00928012 0 0.000427829)
(0.0091841 0 0.000376067)
(0.00909955 0 0.000329124)
(0.00902539 0 0.000286637)
(0.00896067 0 0.000248244)
(0.00890449 0 0.000213591)
(0.00885602 0 0.000182335)
(0.00881454 0 0.000154141)
(0.00877935 0 0.000128691)
(0.00874988 0 0.000105681)
(0.00872557 0 8.48216e-05)
(0.00870596 0 6.58372e-05)
(0.00869063 0 4.84683e-05)
(0.00867923 0 3.24691e-05)
(0.00867146 0 1.76073e-05)
(0.00866708 0 3.66399e-06)
(0.00866587 0 -9.56604e-06)
(0.00866769 0 -2.22819e-05)
(0.00867243 0 -3.46813e-05)
(0.00868002 0 -4.6957e-05)
(0.00869044 0 -5.92993e-05)
(0.0087037 0 -7.18985e-05)
(0.00871987 0 -8.49473e-05)
(0.00873904 0 -9.86436e-05)
(0.00876136 0 -0.000113194)
(0.00878703 0 -0.000128814)
(0.00881627 0 -0.000145739)
(0.00884939 0 -0.000164217)
(0.00888672 0 -0.000184525)
(0.00892865 0 -0.000206965)
(0.00897567 0 -0.000231877)
(0.00902829 0 -0.000259641)
(0.00908714 0 -0.000290687)
(0.00915291 0 -0.000325509)
(0.00922639 0 -0.000364671)
(0.00930851 0 -0.000408824)
(0.00940028 0 -0.000458727)
(0.00950288 0 -0.000515263)
(0.00961764 0 -0.00057947)
(0.0097461 0 -0.000652575)
(0.00988997 0 -0.000736032)
(0.0100512 0 -0.000831581)
(0.0102322 0 -0.000941312)
(0.0104354 0 -0.00106776)
(0.0106637 0 -0.001214)
(0.0109207 0 -0.00138385)
(0.0112102 0 -0.00158203)
(0.0115367 0 -0.00181447)
(0.0119052 0 -0.00208873)
(0.0123216 0 -0.00241455)
(0.0127926 0 -0.00280468)
(0.0133251 0 -0.00327611)
(0.0139266 0 -0.0038518)
(0.0146038 0 -0.00456326)
(0.0153606 0 -0.00545405)
(0.0161935 0 -0.00658446)
(0.0170832 0 -0.00803662)
(0.0179787 0 -0.00991796)
(0.018771 0 -0.0123574)
(0.0192538 0 -0.015483)
(0.0190694 0 -0.0193573)
(0.0176696 0 -0.023814)
(0.0144891 0 -0.0281431)
(0.00958768 0 -0.0309822)
(0.0038764 0 -0.0313586)
(-0.0013173 0 -0.0290101)
(-0.00468268 0 -0.0248205)
(-0.00615577 0 -0.020282)
(-0.00631733 0 -0.0162211)
(-0.00574159 0 -0.012875)
(-0.00482002 0 -0.0102153)
(-0.00378684 0 -0.00812451)
(-0.00276934 0 -0.00647232)
(-0.00182159 0 -0.00514546)
(-0.00096355 0 -0.00405863)
(-0.000457221 0 -0.00315295)
(1.97711e-05 0 -0.000190468)
(5.71258e-05 0 -0.000388584)
(0.000153619 0 -0.000752787)
(0.00033582 0 -0.00127987)
(0.000638524 0 -0.00195879)
(0.0010939 0 -0.00277018)
(0.001729 0 -0.00368517)
(0.00256349 0 -0.00466531)
(0.00360722 0 -0.00566375)
(0.00485822 0 -0.00662799)
(0.00630158 0 -0.00750394)
(0.00790973 0 -0.00824093)
(0.00964433 0 -0.00879665)
(0.0114594 0 -0.00914121)
(0.0133051 0 -0.00925933)
(0.0151324 0 -0.0091506)
(0.0168956 0 -0.00882786)
(0.0185556 0 -0.00831446)
(0.0200808 0 -0.00764092)
(0.0214479 0 -0.00684166)
(0.0226413 0 -0.00595216)
(0.0236527 0 -0.00500671)
(0.0244794 0 -0.00403679)
(0.0251242 0 -0.00307012)
(0.0255933 0 -0.00213004)
(0.025896 0 -0.00123534)
(0.0260436 0 -0.000400284)
(0.0260485 0 0.000365288)
(0.0259241 0 0.00105537)
(0.0256843 0 0.00166661)
(0.0253432 0 0.00219771)
(0.0249148 0 0.00264919)
(0.0244127 0 0.00302316)
(0.0238501 0 0.00332302)
(0.0232392 0 0.00355318)
(0.0225916 0 0.0037188)
(0.0219178 0 0.00382555)
(0.0212275 0 0.0038794)
(0.0205293 0 0.00388645)
(0.0198309 0 0.00385273)
(0.0191389 0 0.00378413)
(0.0184593 0 0.00368627)
(0.0177969 0 0.00356444)
(0.0171557 0 0.00342352)
(0.0165391 0 0.00326797)
(0.0159496 0 0.00310181)
(0.015389 0 0.0029286)
(0.0148588 0 0.00275146)
(0.0143596 0 0.0025731)
(0.0138919 0 0.00239581)
(0.0134554 0 0.0022215)
(0.0130499 0 0.00205174)
(0.0126745 0 0.00188779)
(0.0123284 0 0.00173063)
(0.0120105 0 0.00158097)
(0.0117194 0 0.00143931)
(0.0114538 0 0.00130598)
(0.0112123 0 0.00118111)
(0.0109935 0 0.00106471)
(0.0107958 0 0.000956689)
(0.0106177 0 0.000856839)
(0.0104579 0 0.00076489)
(0.0103149 0 0.000680511)
(0.0101874 0 0.000603327)
(0.0100741 0 0.000532931)
(0.0099737 0 0.000468897)
(0.00988516 0 0.000410788)
(0.00980738 0 0.000358161)
(0.00973935 0 0.000310578)
(0.00968017 0 0.000267606)
(0.00962899 0 0.000228826)
(0.00958505 0 0.00019383)
(0.00954765 0 0.000162228)
(0.00951618 0 0.000133648)
(0.00949009 0 0.000107732)
(0.00946887 0 8.4145e-05)
(0.00945211 0 6.25667e-05)
(0.00943943 0 4.26949e-05)
(0.00943052 0 2.42437e-05)
(0.00942512 0 6.94302e-06)
(0.009423 0 -9.46115e-06)
(0.00942402 0 -2.52138e-05)
(0.00942804 0 -4.05562e-05)
(0.00943499 0 -5.57241e-05)
(0.00944484 0 -7.09507e-05)
(0.00945759 0 -8.64685e-05)
(0.0094733 0 -0.000102513)
(0.00949206 0 -0.000119325)
(0.00951399 0 -0.000137155)
(0.0095393 0 -0.000156267)
(0.00956819 0 -0.000176941)
(0.00960095 0 -0.000199481)
(0.0096379 0 -0.000224215)
(0.00967942 0 -0.000251507)
(0.00972596 0 -0.000281762)
(0.00977803 0 -0.000315431)
(0.0098362 0 -0.000353027)
(0.00990114 0 -0.000395129)
(0.00997359 0 -0.000442402)
(0.0100544 0 -0.000495609)
(0.0101445 0 -0.000555633)
(0.010245 0 -0.000623501)
(0.0103571 0 -0.00070041)
(0.0104822 0 -0.000787769)
(0.0106218 0 -0.000887239)
(0.0107776 0 -0.00100079)
(0.0109516 0 -0.00113079)
(0.0111459 0 -0.00128005)
(0.0113629 0 -0.00145201)
(0.0116054 0 -0.00165084)
(0.0118763 0 -0.00188167)
(0.0121789 0 -0.00215086)
(0.0125165 0 -0.00246638)
(0.0128928 0 -0.00283831)
(0.0133113 0 -0.00327953)
(0.0137749 0 -0.00380665)
(0.0142852 0 -0.00444126)
(0.0148408 0 -0.00521152)
(0.015435 0 -0.006154)
(0.0160509 0 -0.0073154)
(0.0166544 0 -0.00875325)
(0.0171821 0 -0.0105332)
(0.0175263 0 -0.0127188)
(0.0175167 0 -0.015347)
(0.0169062 0 -0.0183784)
(0.0153865 0 -0.0216082)
(0.0127126 0 -0.0245451)
(0.0089917 0 -0.0264321)
(0.00478718 0 -0.0267074)
(0.000904418 0 -0.0252451)
(-0.00193157 0 -0.0224874)
(-0.00352212 0 -0.0192632)
(-0.0041335 0 -0.0161247)
(-0.00408143 0 -0.0133312)
(-0.00363327 0 -0.0109545)
(-0.00298188 0 -0.00897233)
(-0.00225301 0 -0.0073244)
(-0.00151666 0 -0.00594295)
(-0.000813134 0 -0.00476908)
(-0.000389101 0 -0.00375528)
(3.12423e-06 0 -0.000217985)
(2.35632e-05 0 -0.000449194)
(9.41358e-05 0 -0.000883164)
(0.000255213 0 -0.0015169)
(0.000545556 0 -0.00233758)
(0.00100118 0 -0.00332204)
(0.00165301 0 -0.00443509)
(0.00252391 0 -0.0056292)
(0.00362552 0 -0.00684594)
(0.00495572 0 -0.00801945)
(0.00649708 0 -0.00908182)
(0.00821722 0 -0.00996969)
(0.0100712 0 -0.0106309)
(0.0120055 0 -0.0110298)
(0.0139633 0 -0.0111497)
(0.0158892 0 -0.0109929)
(0.0177335 0 -0.0105781)
(0.019455 0 -0.00993667)
(0.0210218 0 -0.00910776)
(0.0224119 0 -0.00813442)
(0.0236122 0 -0.00706001)
(0.0246173 0 -0.00592558)
(0.025428 0 -0.00476817)
(0.0260501 0 -0.00361979)
(0.0264928 0 -0.00250699)
(0.0267676 0 -0.00145077)
(0.0268879 0 -0.000466827)
(0.0268672 0 0.000434257)
(0.0267197 0 0.00124595)
(0.02646 0 0.00196458)
(0.0261025 0 0.00258888)
(0.0256612 0 0.00311972)
(0.0251497 0 0.00355975)
(0.0245807 0 0.00391307)
(0.0239664 0 0.00418492)
(0.0233177 0 0.00438135)
(0.0226447 0 0.00450897)
(0.0219567 0 0.00457471)
(0.0212618 0 0.00458562)
(0.0205673 0 0.00454869)
(0.0198796 0 0.00447074)
(0.0192042 0 0.00435826)
(0.0185457 0 0.00421739)
(0.0179081 0 0.00405379)
(0.0172945 0 0.00387266)
(0.0167074 0 0.00367869)
(0.0161486 0 0.00347606)
(0.0156195 0 0.00326844)
(0.0151208 0 0.00305901)
(0.0146528 0 0.0028505)
(0.0142157 0 0.00264519)
(0.013809 0 0.00244496)
(0.013432 0 0.00225133)
(0.013084 0 0.00206548)
(0.0127638 0 0.00188829)
(0.0124703 0 0.00172039)
(0.0122022 0 0.00156218)
(0.011958 0 0.00141387)
(0.0117364 0 0.00127549)
(0.0115359 0 0.00114695)
(0.0113551 0 0.00102803)
(0.0111926 0 0.000918427)
(0.011047 0 0.000817769)
(0.010917 0 0.000725624)
(0.0108012 0 0.000641522)
(0.0106985 0 0.000564968)
(0.0106078 0 0.00049545)
(0.010528 0 0.000432452)
(0.010458 0 0.000375457)
(0.010397 0 0.000323958)
(0.0103441 0 0.000277459)
(0.0102985 0 0.000235478)
(0.0102597 0 0.000197555)
(0.0102268 0 0.000163247)
(0.0101994 0 0.000132134)
(0.010177 0 0.000103814)
(0.0101591 0 7.79092e-05)
(0.0101454 0 5.40599e-05)
(0.0101354 0 3.19261e-05)
(0.0101291 0 1.1186e-05)
(0.010126 0 -8.46421e-06)
(0.0101262 0 -2.73157e-05)
(0.0101293 0 -4.5653e-05)
(0.0101354 0 -6.37554e-05)
(0.0101445 0 -8.18982e-05)
(0.0101564 0 -0.000100356)
(0.0101712 0 -0.000119407)
(0.0101891 0 -0.000139334)
(0.0102101 0 -0.00016043)
(0.0102344 0 -0.000183005)
(0.0102622 0 -0.000207384)
(0.0102938 0 -0.00023392)
(0.0103294 0 -0.000262994)
(0.0103695 0 -0.000295026)
(0.0104144 0 -0.000330479)
(0.0104645 0 -0.000369873)
(0.0105206 0 -0.000413789)
(0.010583 0 -0.000462887)
(0.0106525 0 -0.000517918)
(0.0107299 0 -0.00057974)
(0.010816 0 -0.000649342)
(0.0109118 0 -0.000727866)
(0.0110183 0 -0.000816638)
(0.0111366 0 -0.000917208)
(0.0112681 0 -0.00103139)
(0.0114141 0 -0.00116132)
(0.0115763 0 -0.00130954)
(0.0117563 0 -0.00147905)
(0.0119558 0 -0.00167348)
(0.0121769 0 -0.00189716)
(0.0124215 0 -0.00215537)
(0.0126915 0 -0.00245453)
(0.0129887 0 -0.00280256)
(0.0133145 0 -0.00320919)
(0.0136696 0 -0.00368655)
(0.0140533 0 -0.00424971)
(0.0144624 0 -0.00491745)
(0.01489 0 -0.00571295)
(0.0153225 0 -0.00666434)
(0.0157363 0 -0.0078046)
(0.0160921 0 -0.0091698)
(0.0163283 0 -0.0107942)
(0.0163529 0 -0.0126995)
(0.0160383 0 -0.0148751)
(0.0152238 0 -0.017246)