/*--------------------------------*- C++ -*----------------------------------*\
  =========                 |
  \\      /  F ield         | OpenFOAM: The Open Source CFD Toolbox
   \\    /   O peration     | Website:  https://openfoam.org
    \\  /    A nd           | Version:  12
     \\/     M anipulation  |
\*---------------------------------------------------------------------------*/
FoamFile
{
    format      ascii;
    class       volVectorField;
    location    "40";
    object      UMean;
}
// * * * * * * * * * * * * * * * * * * * * * * * * * * * * * * * * * * * * * //

dimensions      [0 1 -1 0 0 0 0];

internalField   nonuniform List<vector> 
4480
(
(-7.76442e-06 0 6.02983e-06)
(-5.35122e-06 0 -1.02878e-05)
(2.65142e-05 0 -3.85667e-05)
(0.000106693 0 -7.82704e-05)
(0.000250644 0 -0.000128777)
(0.000472722 0 -0.000188691)
(0.00078501 0 -0.000255979)
(0.00119632 0 -0.000327986)
(0.00171128 0 -0.000401491)
(0.00232966 0 -0.000472862)
(0.00304587 0 -0.000538304)
(0.00384899 0 -0.000594171)
(0.00472313 0 -0.000637278)
(0.00564835 0 -0.000665187)
(0.00660185 0 -0.000676401)
(0.0075594 0 -0.000670451)
(0.00849682 0 -0.000647875)
(0.00939136 0 -0.000610093)
(0.0102228 0 -0.000559215)
(0.0109743 0 -0.00049782)
(0.0116328 0 -0.000428729)
(0.0121896 0 -0.000354799)
(0.0126396 0 -0.00027876)
(0.0129817 0 -0.000203079)
(0.013218 0 -0.000129884)
(0.0133532 0 -6.08825e-05)
(0.013394 0 2.74437e-06)
(0.0133495 0 6.0285e-05)
(0.0132277 0 0.000111347)
(0.0130383 0 0.000155733)
(0.0127907 0 0.000193401)
(0.0124945 0 0.000224465)
(0.0121589 0 0.000249185)
(0.0117925 0 0.00026793)
(0.0114035 0 0.000281151)
(0.0109994 0 0.00028936)
(0.010587 0 0.000293101)
(0.010172 0 0.000292931)
(0.00975976 0 0.000289404)
(0.00935452 0 0.000283056)
(0.00895994 0 0.000274397)
(0.00857895 0 0.000263896)
(0.00821385 0 0.000251985)
(0.00786635 0 0.000239049)
(0.00753765 0 0.00022543)
(0.00722852 0 0.000211422)
(0.00693931 0 0.000197279)
(0.00667006 0 0.000183212)
(0.00642055 0 0.000169396)
(0.00619031 0 0.000155971)
(0.00597872 0 0.000143045)
(0.005785 0 0.000130702)
(0.00560829 0 0.000119)
(0.00544766 0 0.000107977)
(0.00530213 0 9.76543e-05)
(0.00517071 0 8.80383e-05)
(0.00505239 0 7.91241e-05)
(0.0049462 0 7.08969e-05)
(0.00485118 0 6.33347e-05)
(0.00476641 0 5.64097e-05)
(0.00469101 0 5.009e-05)
(0.00462415 0 4.43406e-05)
(0.00456505 0 3.9125e-05)
(0.00451297 0 3.44056e-05)
(0.00446725 0 3.01447e-05)
(0.00442726 0 2.63051e-05)
(0.00439244 0 2.28503e-05)
(0.00436225 0 1.97452e-05)
(0.00433624 0 1.6956e-05)
(0.00431397 0 1.44508e-05)
(0.00429506 0 1.2199e-05)
(0.00427919 0 1.0172e-05)
(0.00426604 0 8.34298e-06)
(0.00425536 0 6.68665e-06)
(0.00424692 0 5.17944e-06)
(0.00424052 0 3.79928e-06)
(0.004236 0 2.52555e-06)
(0.00423321 0 1.3391e-06)
(0.00423205 0 2.22531e-07)
(0.00423244 0 -8.40604e-07)
(0.0042343 0 -1.86706e-06)
(0.0042376 0 -2.87318e-06)
(0.00424231 0 -3.87452e-06)
(0.00424845 0 -4.88645e-06)
(0.00425603 0 -5.92437e-06)
(0.0042651 0 -7.00393e-06)
(0.00427573 0 -8.14128e-06)
(0.00428802 0 -9.35336e-06)
(0.00430208 0 -1.06581e-05)
(0.00431805 0 -1.20749e-05)
(0.00433612 0 -1.36248e-05)
(0.00435647 0 -1.53309e-05)
(0.00437935 0 -1.72189e-05)
(0.00440503 0 -1.93177e-05)
(0.00443383 0 -2.166e-05)
(0.00446612 0 -2.42829e-05)
(0.00450232 0 -2.72292e-05)
(0.00454291 0 -3.05481e-05)
(0.00458847 0 -3.4297e-05)
(0.00463963 0 -3.85426e-05)
(0.00469715 0 -4.33638e-05)
(0.0047619 0 -4.88534e-05)
(0.00483489 0 -5.51219e-05)
(0.00491729 0 -6.23014e-05)
(0.00501048 0 -7.05506e-05)
(0.00511611 0 -8.00618e-05)
(0.00523607 0 -9.10686e-05)
(0.00537265 0 -0.000103858)
(0.00552859 0 -0.000118781)
(0.00570714 0 -0.000136278)
(0.00591226 0 -0.000156891)
(0.00614877 0 -0.000181303)
(0.00642255 0 -0.000210363)
(0.00674084 0 -0.000245131)
(0.00711264 0 -0.000286908)
(0.00754907 0 -0.000337256)
(0.00806394 0 -0.000397969)
(0.00867426 0 -0.000470978)
(0.00940159 0 -0.000558603)
(0.0102755 0 -0.000666349)
(0.0113324 0 -0.00081293)
(0.0125873 0 -0.00104979)
(0.0140655 0 -0.00151536)
(0.0165795 0 -0.00287073)
(0.0241673 0 -0.00869085)
(0.0381899 0 -0.0316409)
(0.0427464 0 -0.080379)
(0.0199044 0 -0.101228)
(-0.00922272 0 -0.103854)
(-0.0344578 0 -0.08451)
(-0.0303607 0 -0.0329064)
(-0.0154563 0 -0.0092507)
(-0.00749738 0 -0.00300645)
(-0.0050307 0 -0.00148396)
(-0.00369153 0 -0.000953726)
(-0.00259035 0 -0.000692094)
(-0.00169762 0 -0.000533164)
(-0.000996946 0 -0.000413722)
(-0.000461884 0 -0.000312665)
(-0.000207462 0 -0.000203287)
(4.88134e-06 0 4.52636e-06)
(2.2369e-05 0 -2.9451e-05)
(7.92648e-05 0 -8.8358e-05)
(0.000192885 0 -0.000171481)
(0.000382071 0 -0.000277283)
(0.000663971 0 -0.000402845)
(0.00105273 0 -0.000543925)
(0.0015585 0 -0.000694966)
(0.0021864 0 -0.000849212)
(0.00293579 0 -0.000999041)
(0.00379973 0 -0.00113649)
(0.00476506 0 -0.00125389)
(0.00581293 0 -0.00134453)
(0.00691986 0 -0.0014033)
(0.00805916 0 -0.00142703)
(0.00920261 0 -0.00141472)
(0.0103221 0 -0.00136749)
(0.0113913 0 -0.00128832)
(0.0123867 0 -0.00118163)
(0.0132888 0 -0.0010528)
(0.0140823 0 -0.000907737)
(0.0147567 0 -0.000752429)
(0.015306 0 -0.000592573)
(0.0157284 0 -0.00043333)
(0.0160258 0 -0.000279138)
(0.0162032 0 -0.00013358)
(0.0162681 0 7.48819e-07)
(0.0162302 0 0.000122348)
(0.0160994 0 0.000230431)
(0.0158865 0 0.000324503)
(0.0156027 0 0.000404455)
(0.0152592 0 0.000470525)
(0.0148667 0 0.000523242)
(0.0144357 0 0.000563368)
(0.0139758 0 0.000591843)
(0.0134961 0 0.000609726)
(0.0130046 0 0.000618155)
(0.0125086 0 0.000618295)
(0.0120144 0 0.000611306)
(0.0115273 0 0.000598316)
(0.0110519 0 0.000580392)
(0.0105918 0 0.000558528)
(0.01015 0 0.000533634)
(0.00972873 0 0.000506525)
(0.00932951 0 0.000477923)
(0.00895342 0 0.000448458)
(0.00860102 0 0.000418665)
(0.00827247 0 0.000388999)
(0.00796757 0 0.00035983)
(0.00768586 0 0.000331461)
(0.00742663 0 0.000304125)
(0.00718903 0 0.000278001)
(0.00697204 0 0.000253216)
(0.00677458 0 0.000229854)
(0.0065955 0 0.000207964)
(0.0064336 0 0.000187561)
(0.0062877 0 0.000168636)
(0.00615663 0 0.000151162)
(0.00603922 0 0.000135092)
(0.00593437 0 0.00012037)
(0.00584102 0 0.000106929)
(0.00575815 0 9.46952e-05)
(0.00568482 0 8.35929e-05)
(0.00562014 0 7.3543e-05)
(0.00556329 0 6.44661e-05)
(0.0055135 0 5.62835e-05)
(0.00547008 0 4.89186e-05)
(0.00543239 0 4.2297e-05)
(0.00539986 0 3.63473e-05)
(0.00537196 0 3.10016e-05)
(0.00534823 0 2.61956e-05)
(0.00532825 0 2.18685e-05)
(0.00531164 0 1.79633e-05)
(0.0052981 0 1.44264e-05)
(0.00528733 0 1.12078e-05)
(0.0052791 0 8.2606e-06)
(0.0052732 0 5.54108e-06)
(0.00526945 0 3.00844e-06)
(0.00526772 0 6.25007e-07)
(0.00526791 0 -1.64404e-06)
(0.00526993 0 -3.83349e-06)
(0.00527372 0 -5.97825e-06)
(0.00527927 0 -8.11158e-06)
(0.00528657 0 -1.02661e-05)
(0.00529566 0 -1.24745e-05)
(0.00530659 0 -1.47701e-05)
(0.00531944 0 -1.71872e-05)
(0.00533433 0 -1.97616e-05)
(0.0053514 0 -2.25316e-05)
(0.00537081 0 -2.55379e-05)
(0.00539278 0 -2.88253e-05)
(0.00541756 0 -3.24426e-05)
(0.00544543 0 -3.64443e-05)
(0.00547672 0 -4.08915e-05)
(0.00551183 0 -4.58531e-05)
(0.00555119 0 -5.14076e-05)
(0.00559532 0 -5.76453e-05)
(0.00564482 0 -6.46701e-05)
(0.00570035 0 -7.26028e-05)
(0.00576271 0 -8.15845e-05)
(0.0058328 0 -9.17808e-05)
(0.00591167 0 -0.000103388)
(0.00600054 0 -0.000116637)
(0.00610083 0 -0.000131808)
(0.0062142 0 -0.000149235)
(0.00634261 0 -0.00016932)
(0.00648836 0 -0.000192558)
(0.0066542 0 -0.00021955)
(0.00684337 0 -0.000251043)
(0.0070598 0 -0.000287961)
(0.00730823 0 -0.000331465)
(0.00759444 0 -0.000383016)
(0.00792553 0 -0.000444475)
(0.00831033 0 -0.000518221)
(0.00875999 0 -0.000607333)
(0.00928882 0 -0.000715839)
(0.00991567 0 -0.00084913)
(0.0106663 0 -0.00101471)
(0.0115783 0 -0.00122404)
(0.0127105 0 -0.00149791)
(0.0141579 0 -0.0018811)
(0.0160705 0 -0.002473)
(0.0187306 0 -0.00348903)
(0.0228786 0 -0.00552073)
(0.0298907 0 -0.0107419)
(0.0374806 0 -0.0258304)
(0.0343536 0 -0.0579385)
(0.0169594 0 -0.0757364)
(-0.00588911 0 -0.0775172)
(-0.0247096 0 -0.0609563)
(-0.0280592 0 -0.0272395)
(-0.019965 0 -0.0112802)
(-0.012623 0 -0.00565074)
(-0.00836198 0 -0.00342442)
(-0.00569482 0 -0.00231398)
(-0.00383595 0 -0.00167468)
(-0.00248743 0 -0.00126027)
(-0.00148417 0 -0.000954863)
(-0.000725116 0 -0.000704055)
(-0.000334331 0 -0.000475731)
(1.71124e-05 0 -1.70217e-05)
(4.85368e-05 0 -7.9722e-05)
(0.000129038 0 -0.000190184)
(0.000272814 0 -0.00034661)
(0.00050169 0 -0.000545722)
(0.00083544 0 -0.000781879)
(0.00129016 0 -0.00104698)
(0.00187726 0 -0.00133046)
(0.0026024 0 -0.00161955)
(0.00346453 0 -0.00189995)
(0.00445547 0 -0.00215676)
(0.00555993 0 -0.00237575)
(0.00675626 0 -0.00254453)
(0.00801769 0 -0.0026537)
(0.00931402 0 -0.00269751)
(0.0106136 0 -0.00267426)
(0.011885 0 -0.00258608)
(0.013099 0 -0.00243852)
(0.0142298 0 -0.00223972)
(0.015256 0 -0.00199963)
(0.0161608 0 -0.00172906)
(0.0169328 0 -0.00143898)
(0.0175652 0 -0.00113988)
(0.0180561 0 -0.000841236)
(0.0184072 0 -0.000551248)
(0.0186239 0 -0.00027658)
(0.0187139 0 -2.22096e-05)
(0.0186875 0 0.000208761)
(0.0185557 0 0.000414629)
(0.0183303 0 0.000594388)
(0.0180236 0 0.000747751)
(0.0176479 0 0.000875083)
(0.0172154 0 0.000977297)
(0.0167375 0 0.00105575)
(0.0162251 0 0.00111214)
(0.0156885 0 0.00114842)
(0.0151368 0 0.00116666)
(0.0145782 0 0.00116904)
(0.01402 0 0.00115772)
(0.0134683 0 0.00113481)
(0.0129286 0 0.00110233)
(0.0124051 0 0.00106215)
(0.0119013 0 0.001016)
(0.0114199 0 0.000965442)
(0.0109629 0 0.000911857)
(0.0105316 0 0.000856456)
(0.0101267 0 0.000800276)
(0.00974872 0 0.000744197)
(0.00939739 0 0.000688944)
(0.0090723 0 0.000635108)
(0.00877277 0 0.000583151)
(0.00849785 0 0.000533427)
(0.00824648 0 0.000486193)
(0.00801745 0 0.000441622)
(0.00780949 0 0.000399814)
(0.00762128 0 0.000360811)
(0.00745147 0 0.000324604)
(0.00729874 0 0.000291145)
(0.00716179 0 0.000260352)
(0.00703936 0 0.000232122)
(0.00693022 0 0.000206331)
(0.00683322 0 0.000182843)
(0.00674729 0 0.000161515)
(0.0066714 0 0.000142197)
(0.0066046 0 0.00012474)
(0.00654602 0 0.000108994)
(0.00649485 0 9.48151e-05)
(0.00645036 0 8.20605e-05)
(0.00641189 0 7.05948e-05)
(0.00637882 0 6.02885e-05)
(0.00635062 0 5.10187e-05)
(0.00632681 0 4.26695e-05)
(0.00630694 0 3.51319e-05)
(0.00629066 0 2.83035e-05)
(0.00627763 0 2.20886e-05)
(0.00626756 0 1.63973e-05)
(0.00626021 0 1.11459e-05)
(0.0062554 0 6.25612e-06)
(0.00625294 0 1.65496e-06)
(0.00625272 0 -2.72488e-06)
(0.00625464 0 -6.94942e-06)
(0.00625863 0 -1.10848e-05)
(0.00626466 0 -1.51948e-05)
(0.00627274 0 -1.93422e-05)
(0.00628289 0 -2.35896e-05)
(0.00629517 0 -2.80007e-05)
(0.00630967 0 -3.26413e-05)
(0.00632653 0 -3.75799e-05)
(0.00634589 0 -4.28892e-05)
(0.00636795 0 -4.86476e-05)
(0.00639295 0 -5.49397e-05)
(0.00642116 0 -6.18589e-05)
(0.00645291 0 -6.95088e-05)
(0.00648858 0 -7.80052e-05)
(0.0065286 0 -8.7479e-05)
(0.00657346 0 -9.80793e-05)
(0.00662376 0 -0.000109977)
(0.00668014 0 -0.000123368)
(0.00674338 0 -0.000138481)
(0.00681434 0 -0.000155583)
(0.00689404 0 -0.000174985)
(0.00698365 0 -0.000197057)
(0.00708452 0 -0.000222235)
(0.00719823 0 -0.000251042)
(0.00732659 0 -0.000284104)
(0.00747177 0 -0.000322179)
(0.00763628 0 -0.000366189)
(0.0078231 0 -0.000417264)
(0.00803578 0 -0.000476797)
(0.00827856 0 -0.000546526)
(0.00855656 0 -0.000628632)
(0.00887599 0 -0.000725889)
(0.00924449 0 -0.000841863)
(0.0096716 0 -0.000981213)
(0.0101694 0 -0.00115016)
(0.0107535 0 -0.00135723)
(0.0114448 0 -0.00161461)
(0.0122719 0 -0.00194067)
(0.0132757 0 -0.00236496)
(0.0145165 0 -0.00293912)
(0.0160834 0 -0.00375971)
(0.0181024 0 -0.00501222)
(0.0207482 0 -0.00705033)
(0.0242364 0 -0.0105768)
(0.0284563 0 -0.0170913)
(0.0311474 0 -0.0292187)
(0.0267918 0 -0.0467864)
(0.0142112 0 -0.0579489)
(-0.00226425 0 -0.0590845)
(-0.0158398 0 -0.0487478)
(-0.0204575 0 -0.0305743)
(-0.0175911 0 -0.0178518)
(-0.0131264 0 -0.0109151)
(-0.00945119 0 -0.00710648)
(-0.00668964 0 -0.00488776)
(-0.00462122 0 -0.00351905)
(-0.00306223 0 -0.00261396)
(-0.00186843 0 -0.00196461)
(-0.000936498 0 -0.001461)
(-0.000429919 0 -0.00104697)
(2.60528e-05 0 -5.52343e-05)
(6.76206e-05 0 -0.000148639)
(0.000165754 0 -0.000314537)
(0.000332681 0 -0.000550294)
(0.000592989 0 -0.00085074)
(0.000969032 0 -0.00120724)
(0.00147896 0 -0.00160741)
(0.00213561 0 -0.00203506)
(0.00294528 0 -0.00247073)
(0.00390664 0 -0.00289262)
(0.00501022 0 -0.00327821)
(0.00623851 0 -0.00360604)
(0.00756686 0 -0.00385762)
(0.00896501 0 -0.00401906)
(0.0103991 0 -0.00408212)
(0.011834 0 -0.00404461)
(0.0132354 0 -0.00391013)
(0.0145714 0 -0.00368725)
(0.0158145 0 -0.00338833)
(0.0169418 0 -0.00302823)
(0.0179361 0 -0.00262302)
(0.0187856 0 -0.0021889)
(0.0194835 0 -0.00174125)
(0.0200281 0 -0.00129398)
(0.0204215 0 -0.000859073)
(0.0206694 0 -0.000446323)
(0.0207801 0 -6.31388e-05)
(0.0207643 0 0.000285626)
(0.0206337 0 0.000597213)
(0.020401 0 0.000870051)
(0.0200792 0 0.00110362)
(0.0196814 0 0.00129837)
(0.0192206 0 0.00145556)
(0.0187092 0 0.00157712)
(0.0181589 0 0.0016655)
(0.0175807 0 0.00172353)
(0.0169845 0 0.00175425)
(0.0163793 0 0.00176088)
(0.015773 0 0.00174659)
(0.0151725 0 0.00171455)
(0.0145837 0 0.00166774)
(0.0140115 0 0.00160901)
(0.0134597 0 0.00154095)
(0.0129315 0 0.00146592)
(0.0124291 0 0.00138603)
(0.0119542 0 0.00130312)
(0.0115077 0 0.0012188)
(0.0110902 0 0.0011344)
(0.0107015 0 0.00105108)
(0.0103414 0 0.000969727)
(0.0100091 0 0.000891085)
(0.00970375 0 0.000815711)
(0.00942417 0 0.000744014)
(0.00916913 0 0.000676277)
(0.00893727 0 0.000612668)
(0.00872718 0 0.000553267)
(0.00853742 0 0.000498073)
(0.00836654 0 0.000447023)
(0.00821314 0 0.000400005)
(0.00807584 0 0.000356867)
(0.0079533 0 0.000317428)
(0.00784428 0 0.000281488)
(0.00774756 0 0.000248831)
(0.00766203 0 0.000219234)
(0.00758665 0 0.000192473)
(0.00752044 0 0.000168322)
(0.00746253 0 0.000146562)
(0.00741208 0 0.000126979)
(0.00736837 0 0.000109365)
(0.00733072 0 9.35262e-05)
(0.00729852 0 7.92741e-05)
(0.00727125 0 6.64327e-05)
(0.00724841 0 5.48361e-05)
(0.00722959 0 4.43282e-05)
(0.00721443 0 3.47631e-05)
(0.00720259 0 2.60039e-05)
(0.00719381 0 1.79227e-05)
(0.00718787 0 1.03995e-05)
(0.00718458 0 3.32257e-06)
(0.00718379 0 -3.41203e-06)
(0.0071854 0 -9.90454e-06)
(0.00718932 0 -1.62547e-05)
(0.00719553 0 -2.25598e-05)
(0.007204 0 -2.89155e-05)
(0.00721478 0 -3.54175e-05)
(0.00722793 0 -4.21627e-05)
(0.00724353 0 -4.9251e-05)
(0.00726172 0 -5.67865e-05)
(0.00728267 0 -6.48797e-05)
(0.00730659 0 -7.36486e-05)
(0.00733373 0 -8.32217e-05)
(0.00736438 0 -9.37396e-05)
(0.00739889 0 -0.000105358)
(0.00743767 0 -0.000118252)
(0.00748118 0 -0.000132617)
(0.00752995 0 -0.000148678)
(0.0075846 0 -0.000166688)
(0.00764583 0 -0.000186943)
(0.00771445 0 -0.000209781)
(0.00779138 0 -0.0002356)
(0.00787768 0 -0.000264862)
(0.00797459 0 -0.000298113)
(0.00808351 0 -0.000335999)
(0.00820607 0 -0.000379289)
(0.00834417 0 -0.000428905)
(0.00850001 0 -0.000485958)
(0.00867616 0 -0.000551798)
(0.00887565 0 -0.000628073)
(0.00910203 0 -0.000716817)
(0.00935954 0 -0.000820562)
(0.00965325 0 -0.000942488)
(0.00998923 0 -0.00108665)
(0.0103749 0 -0.00125827)
(0.0108194 0 -0.00146423)
(0.0113342 0 -0.00171378)
(0.0119337 0 -0.00201974)
(0.0126366 0 -0.00240042)
(0.0134671 0 -0.00288313)
(0.0144574 0 -0.0035103)
(0.0156486 0 -0.0043506)
(0.0170902 0 -0.00551847)
(0.0188297 0 -0.00720606)
(0.0208841 0 -0.00973004)
(0.023157 0 -0.0135977)
(0.0251673 0 -0.0195628)
(0.0253817 0 -0.0283376)
(0.0211655 0 -0.0387854)
(0.0120843 0 -0.045751)
(0.000602305 0 -0.0465334)
(-0.00919181 0 -0.0402434)
(-0.0136611 0 -0.0296319)
(-0.0134354 0 -0.0204717)
(-0.0112801 0 -0.0141301)
(-0.00883349 0 -0.00995602)
(-0.00662579 0 -0.00720094)
(-0.00477433 0 -0.00534054)
(-0.00326719 0 -0.00403483)
(-0.00204527 0 -0.00307238)
(-0.00104671 0 -0.0023273)
(-0.000485895 0 -0.00173042)
(2.99433e-05 0 -0.000103317)
(7.62027e-05 0 -0.000229115)
(0.000183197 0 -0.000453981)
(0.000363917 0 -0.000774854)
(0.000645758 0 -0.0011847)
(0.00105378 0 -0.00167171)
(0.00160845 0 -0.00221879)
(0.00232433 0 -0.00280353)
(0.00320858 0 -0.00339891)
(0.00425966 0 -0.00397474)
(0.0054667 0 -0.00449987)
(0.00680963 0 -0.00494478)
(0.00826033 0 -0.00528428)
(0.00978453 0 -0.0054997)
(0.0113442 0 -0.00558038)
(0.0129005 0 -0.00552404)
(0.0144158 0 -0.00533633)
(0.0158559 0 -0.00502952)
(0.0171919 0 -0.00462085)
(0.0184002 0 -0.00413069)
(0.0194636 0 -0.00358082)
(0.0203706 0 -0.00299292)
(0.0211154 0 -0.00238746)
(0.0216968 0 -0.00178285)
(0.0221181 0 -0.00119484)
(0.0223856 0 -0.000636319)
(0.0225084 0 -0.000117063)
(0.0224978 0 0.000356324)
(0.0223661 0 0.000779964)
(0.0221265 0 0.0011517)
(0.0217928 0 0.00147076)
(0.0213786 0 0.00173767)
(0.0208974 0 0.00195404)
(0.020362 0 0.00212237)
(0.0197849 0 0.00224587)
(0.0191774 0 0.00232825)
(0.0185498 0 0.00237357)
(0.0179118 0 0.00238605)
(0.0172716 0 0.00236995)
(0.0166365 0 0.00232948)
(0.0160127 0 0.00226866)
(0.0154055 0 0.00219131)
(0.0148191 0 0.00210093)
(0.0142568 0 0.00200073)
(0.0137212 0 0.00189359)
(0.0132141 0 0.00178203)
(0.0127368 0 0.00166823)
(0.0122896 0 0.00155408)
(0.0118729 0 0.00144113)
(0.0114862 0 0.00133066)
(0.0111289 0 0.00122369)
(0.0108002 0 0.00112102)
(0.0104988 0 0.00102322)
(0.0102236 0 0.000930717)
(0.00997306 0 0.000843756)
(0.00974578 0 0.000762463)
(0.00954025 0 0.000686858)
(0.00935497 0 0.000616868)
(0.00918843 0 0.000552353)
(0.0090392 0 0.000493117)
(0.00890586 0 0.000438921)
(0.00878708 0 0.0003895)
(0.00868157 0 0.000344564)
(0.00858816 0 0.000303814)
(0.00850571 0 0.000266946)
(0.00843319 0 0.000233657)
(0.00836965 0 0.000203646)
(0.00831421 0 0.000176623)
(0.00826608 0 0.000152308)
(0.00822453 0 0.000130432)
(0.00818892 0 0.00011074)
(0.00815864 0 9.29914e-05)
(0.0081332 0 7.69587e-05)
(0.00811213 0 6.24287e-05)
(0.00809504 0 4.92013e-05)
(0.00808157 0 3.7089e-05)
(0.00807142 0 2.59162e-05)
(0.00806436 0 1.55184e-05)
(0.00806018 0 5.74145e-06)
(0.0080587 0 -3.55829e-06)
(0.00805983 0 -1.2518e-05)
(0.00806346 0 -2.1273e-05)
(0.00806956 0 -2.99565e-05)
(0.0080781 0 -3.86992e-05)
(0.00808911 0 -4.76318e-05)
(0.00810265 0 -5.68869e-05)
(0.00811881 0 -6.66003e-05)
(0.00813774 0 -7.6914e-05)
(0.0081596 0 -8.79776e-05)
(0.00818461 0 -9.99515e-05)
(0.00821301 0 -0.000113009)
(0.00824512 0 -0.00012734)
(0.0082813 0 -0.000143155)
(0.00832195 0 -0.000160688)
(0.00836755 0 -0.000180202)
(0.00841865 0 -0.000201996)
(0.00847588 0 -0.000226411)
(0.00853994 0 -0.000253838)
(0.00861165 0 -0.000284727)
(0.00869196 0 -0.000319605)
(0.00878191 0 -0.000359081)
(0.00888275 0 -0.000403874)
(0.00899586 0 -0.000454833)
(0.00912285 0 -0.000512961)
(0.00926558 0 -0.000579461)
(0.00942618 0 -0.000655773)
(0.00960712 0 -0.000743644)
(0.00981128 0 -0.000845196)
(0.010042 0 -0.000963042)
(0.0103032 0 -0.00110042)
(0.0105995 0 -0.00126137)
(0.0109364 0 -0.00145105)
(0.0113203 0 -0.00167605)
(0.0117591 0 -0.00194504)
(0.0122621 0 -0.00226954)
(0.0128406 0 -0.00266529)
(0.0135081 0 -0.00315434)
(0.0142805 0 -0.0037683)
(0.0151756 0 -0.00455369)
(0.0162103 0 -0.00558004)
(0.0173935 0 -0.00695192)
(0.018709 0 -0.0088241)
(0.0200808 0 -0.0114156)
(0.0213056 0 -0.0150106)
(0.0219171 0 -0.0199034)
(0.0209762 0 -0.0261361)
(0.0172433 0 -0.0327329)
(0.0106273 0 -0.0371355)
(0.00261954 0 -0.0376805)
(-0.00448949 0 -0.0338451)
(-0.008436 0 -0.0272917)
(-0.00943357 0 -0.0208448)
(-0.00875398 0 -0.0156659)
(-0.00739682 0 -0.0117942)
(-0.00587558 0 -0.00896264)
(-0.00442316 0 -0.00688758)
(-0.00313032 0 -0.00533896)
(-0.00201004 0 -0.00414973)
(-0.00104719 0 -0.0032082)
(-0.000491993 0 -0.00244617)
(2.74346e-05 0 -0.000153126)
(7.16406e-05 0 -0.000312309)
(0.000176629 0 -0.000599555)
(0.000360024 0 -0.00101172)
(0.000652301 0 -0.00153996)
(0.00108151 0 -0.00216913)
(0.00167086 0 -0.00287697)
(0.00243705 0 -0.0036341)
(0.00338839 0 -0.00440491)
(0.00452318 0 -0.00514959)
(0.00582892 0 -0.00582705)
(0.00728247 0 -0.00639858)
(0.00885146 0 -0.00683144)
(0.0104967 0 -0.00710188)
(0.0121754 0 -0.00719695)
(0.013844 0 -0.00711489)
(0.0154616 0 -0.00686424)
(0.0169917 0 -0.00646198)
(0.018404 0 -0.00593118)
(0.019675 0 -0.00529853)
(0.020788 0 -0.00459209)
(0.0217328 0 -0.00383946)
(0.0225049 0 -0.0030664)
(0.023105 0 -0.00229581)
(0.0235376 0 -0.00154718)
(0.0238104 0 -0.000836332)
(0.0239339 0 -0.000175247)
(0.0239196 0 0.000427895)
(0.0237809 0 0.000968159)
(0.0235315 0 0.00144281)
(0.0231854 0 0.0018509)
(0.0227569 0 0.00219305)
(0.0222597 0 0.00247126)
(0.0217069 0 0.00268865)
(0.0211112 0 0.00284921)
(0.0204841 0 0.00295757)
(0.0198362 0 0.00301878)
(0.0191772 0 0.00303812)
(0.0185154 0 0.00302093)
(0.0178584 0 0.00297248)
(0.0172126 0 0.00289784)
(0.0165832 0 0.00280181)
(0.0159747 0 0.00268885)
(0.0153906 0 0.00256301)
(0.0148336 0 0.00242796)
(0.0143056 0 0.00228692)
(0.0138079 0 0.0021427)
(0.0133411 0 0.00199773)
(0.0129055 0 0.001854)
(0.0125009 0 0.00171321)
(0.0121265 0 0.00157667)
(0.0117817 0 0.00144543)
(0.0114651 0 0.00132027)
(0.0111757 0 0.00120174)
(0.0109119 0 0.0010902)
(0.0106724 0 0.000985825)
(0.0104555 0 0.000888662)
(0.0102597 0 0.000798638)
(0.0100836 0 0.000715589)
(0.00992557 0 0.000639277)
(0.0097842 0 0.000569408)
(0.00965812 0 0.00050565)
(0.00954599 0 0.000447641)
(0.00944658 0 0.000395004)
(0.00935873 0 0.000347353)
(0.00928135 0 0.000304303)
(0.00921344 0 0.000265472)
(0.0091541 0 0.00023049)
(0.00910247 0 0.000198998)
(0.00905782 0 0.000170653)
(0.00901944 0 0.000145128)
(0.00898672 0 0.000122115)
(0.00895913 0 0.000101322)
(0.00893616 0 8.24756e-05)
(0.00891741 0 6.53177e-05)
(0.0089025 0 4.96078e-05)
(0.00889112 0 3.51202e-05)
(0.008883 0 2.16429e-05)
(0.00887791 0 8.97711e-06)
(0.0088757 0 -3.06331e-06)
(0.00887621 0 -1.46548e-05)
(0.00887937 0 -2.597e-05)
(0.00888511 0 -3.71794e-05)
(0.00889341 0 -4.84506e-05)
(0.00890429 0 -5.9951e-05)
(0.0089178 0 -7.18497e-05)
(0.00893404 0 -8.43205e-05)
(0.00895313 0 -9.75437e-05)
(0.00897525 0 -0.00011171)
(0.0090006 0 -0.000127022)
(0.00902944 0 -0.000143699)
(0.00906207 0 -0.00016198)
(0.00909885 0 -0.000182131)
(0.00914017 0 -0.000204445)
(0.00918652 0 -0.000229252)
(0.00923843 0 -0.000256924)
(0.00929651 0 -0.000287885)
(0.00936146 0 -0.000322621)
(0.00943408 0 -0.000361689)
(0.00951527 0 -0.000405736)
(0.00960606 0 -0.000455512)
(0.00970761 0 -0.000511896)
(0.00982125 0 -0.000575919)
(0.00994849 0 -0.000648802)
(0.010091 0 -0.000731994)
(0.0102509 0 -0.000827225)
(0.0104303 0 -0.000936582)
(0.0106317 0 -0.00106259)
(0.0108583 0 -0.00120832)
(0.0111132 0 -0.00137758)
(0.0114004 0 -0.00157507)
(0.0117243 0 -0.00180673)
(0.0120901 0 -0.0020801)
(0.0125034 0 -0.0024049)
(0.0129709 0 -0.00279386)
(0.0134996 0 -0.00326396)
(0.0140968 0 -0.00383813)
(0.0147693 0 -0.00454782)
(0.0155208 0 -0.00543654)
(0.0163479 0 -0.00656452)
(0.0172312 0 -0.00801381)
(0.0181198 0 -0.00989179)
(0.0189047 0 -0.0123274)
(0.0193801 0 -0.0154487)
(0.0191884 0 -0.0193186)
(0.0177816 0 -0.0237714)
(0.0145945 0 -0.0280981)
(0.00968583 0 -0.0309368)
(0.00396579 0 -0.0313142)
(-0.00123794 0 -0.0289672)
(-0.00461497 0 -0.0247765)
(-0.00609752 0 -0.0202367)
(-0.00626796 0 -0.0161748)
(-0.00570051 0 -0.0128288)
(-0.0047867 0 -0.0101702)
(-0.00376086 0 -0.00808181)
(-0.00275026 0 -0.00643299)
(-0.00180897 0 -0.00511038)
(-0.000956872 0 -0.00402853)
(-0.000454048 0 -0.00312844)
(1.76829e-05 0 -0.000195102)
(5.22363e-05 0 -0.000387456)
(0.000142988 0 -0.000739906)
(0.000316818 0 -0.00124948)
(0.000607717 0 -0.00190559)
(0.00104713 0 -0.00268956)
(0.00166158 0 -0.00357352)
(0.00247041 0 -0.00452022)
(0.00348341 0 -0.00548424)
(0.00469878 0 -0.00641457)
(0.00610202 0 -0.00725858)
(0.00766619 0 -0.00796689)
(0.00935366 0 -0.00849822)
(0.0111192 0 -0.00882335)
(0.012914 0 -0.00892735)
(0.0146894 0 -0.00880985)
(0.0164003 0 -0.00848351)
(0.0180082 0 -0.00797135)
(0.0194818 0 -0.00730351)
(0.020798 0 -0.006514)
(0.0219415 0 -0.00563792)
(0.0229042 0 -0.00470924)
(0.0236838 0 -0.00375914)
(0.0242834 0 -0.00281502)
(0.0247095 0 -0.00189993)
(0.0249719 0 -0.00103235)
(0.0250823 0 -0.000226165)
(0.0250535 0 0.000509201)
(0.0248995 0 0.00116794)
(0.0246347 0 0.00174687)
(0.0242736 0 0.00224492)
(0.0238305 0 0.00266296)
(0.0233194 0 0.00300347)
(0.0227536 0 0.00327024)
(0.0221456 0 0.00346811)
(0.0215067 0 0.00360265)
(0.0208477 0 0.00367993)
(0.0201778 0 0.00370628)
(0.0195056 0 0.00368813)
(0.0188383 0 0.0036318)
(0.0181822 0 0.00354339)
(0.0175427 0 0.00342867)
(0.0169241 0 0.00329304)
(0.0163298 0 0.0031414)
(0.0157627 0 0.00297821)
(0.0152247 0 0.00280738)
(0.014717 0 0.00263236)
(0.0142405 0 0.0024561)
(0.0137953 0 0.00228109)
(0.0133812 0 0.00210938)
(0.0129978 0 0.00194265)
(0.0126441 0 0.00178219)
(0.0123192 0 0.00162899)
(0.0120217 0 0.00148374)
(0.0117503 0 0.00134692)
(0.0115035 0 0.00121877)
(0.0112798 0 0.00109937)
(0.0110777 0 0.000988645)
(0.0108956 0 0.000886419)
(0.0107321 0 0.000792415)
(0.0105856 0 0.000706287)
(0.0104548 0 0.000627637)
(0.0103384 0 0.000556034)
(0.010235 0 0.000491021)
(0.0101435 0 0.000432132)
(0.0100628 0 0.000378899)
(0.00999193 0 0.000330859)
(0.00992986 0 0.000287559)
(0.00987577 0 0.000248561)
(0.00982887 0 0.000213446)
(0.00978848 0 0.000181813)
(0.00975395 0 0.000153285)
(0.00972472 0 0.000127503)
(0.00970029 0 0.000104132)
(0.00968021 0 8.28555e-05)
(0.00966412 0 6.33773e-05)
(0.00965168 0 4.54199e-05)
(0.0096426 0 2.87226e-05)
(0.00963667 0 1.30404e-05)
(0.00963368 0 -1.85688e-06)
(0.00963351 0 -1.61866e-05)
(0.00963605 0 -3.01598e-05)
(0.00964124 0 -4.39848e-05)
(0.00964904 0 -5.7867e-05)
(0.00965946 0 -7.20108e-05)
(0.00967256 0 -8.66227e-05)
(0.00968841 0 -0.000101914)
(0.00970714 0 -0.000118104)
(0.00972891 0 -0.000135424)
(0.00975392 0 -0.000154119)
(0.00978242 0 -0.000174453)
(0.00981468 0 -0.000196715)
(0.00985106 0 -0.000221221)
(0.00989193 0 -0.000248322)
(0.00993776 0 -0.000278412)
(0.00998905 0 -0.000311933)
(0.0100464 0 -0.000349387)
(0.0101104 0 -0.000391345)
(0.0101819 0 -0.000438463)
(0.0102616 0 -0.000491497)
(0.0103506 0 -0.000551322)
(0.0104499 0 -0.000618956)
(0.0105608 0 -0.000695591)
(0.0106844 0 -0.000782625)
(0.0108225 0 -0.000881712)
(0.0109766 0 -0.000994817)
(0.0111488 0 -0.00112429)
(0.0113411 0 -0.00127294)
(0.011556 0 -0.0014442)
(0.0117961 0 -0.00164221)
(0.0120644 0 -0.00187212)
(0.0123641 0 -0.00214026)
(0.0126985 0 -0.00245458)
(0.0130713 0 -0.00282515)
(0.013486 0 -0.00326482)
(0.0139453 0 -0.00379019)
(0.0144508 0 -0.00442281)
(0.0150013 0 -0.00519081)
(0.0155898 0 -0.0061307)
(0.0161996 0 -0.00728916)
(0.0167965 0 -0.00872368)
(0.0173172 0 -0.0104999)
(0.0176542 0 -0.0126814)
(0.0176373 0 -0.0153053)
(0.0170194 0 -0.0183326)
(0.0154927 0 -0.0215586)
(0.0128119 0 -0.0244929)
(0.00908356 0 -0.0263788)
(0.00487055 0 -0.0266538)
(0.000978869 0 -0.025192)
(-0.00186784 0 -0.0224334)
(-0.00346728 0 -0.0192087)
(-0.00408708 0 -0.0160699)
(-0.00404292 0 -0.0132771)
(-0.00360214 0 -0.0109021)
(-0.00295767 0 -0.0089227)
(-0.00223526 0 -0.00727862)
(-0.00150492 0 -0.00590199)
(-0.000806933 0 -0.0047338)
(-0.000386159 0 -0.00372645)
(2.08968e-07 0 -0.000218811)
(1.701e-05 0 -0.000442713)
(8.05069e-05 0 -0.000862606)
(0.000231928 0 -0.00147576)
(0.00050929 0 -0.00226985)
(0.000947938 0 -0.00322255)
(0.00157834 0 -0.00429983)
(0.00242311 0 -0.00545561)
(0.00349392 0 -0.00663314)
(0.0047889 0 -0.00776829)
(0.00629112 0 -0.00879482)
(0.00796891 0 -0.00965081)
(0.00977807 0 -0.0102852)
(0.0116659 0 -0.010663)
(0.0135763 0 -0.0107678)
(0.0154545 0 -0.0106019)
(0.0172512 0 -0.0101836)
(0.0189254 0 -0.00954373)
(0.0204454 0 -0.00872109)
(0.0217893 0 -0.00775825)
(0.022944 0 -0.00669819)
(0.0239042 0 -0.00558165)
(0.024671 0 -0.00444543)
(0.0252503 0 -0.0033213)
(0.0256516 0 -0.00223555)
(0.0258869 0 -0.00120895)
(0.0259699 0 -0.000256842)
(0.0259146 0 0.000610574)
(0.025736 0 0.00138691)
(0.0254491 0 0.0020687)
(0.0250688 0 0.00265499)
(0.0246097 0 0.00314704)
(0.0240857 0 0.00354796)
(0.02351 0 0.00386234)
(0.0228946 0 0.00409594)
(0.0222507 0 0.0042553)
(0.0215886 0 0.00434756)
(0.0209172 0 0.00438009)
(0.0202446 0 0.00436038)
(0.0195777 0 0.00429577)
(0.0189225 0 0.00419337)
(0.0182841 0 0.0040599)
(0.0176667 0 0.00390163)
(0.0170736 0 0.00372429)
(0.0165073 0 0.00353308)
(0.0159698 0 0.00333261)
(0.0154623 0 0.00312692)
(0.0149856 0 0.00291949)
(0.0145398 0 0.00271327)
(0.0141249 0 0.0025107)
(0.0137403 0 0.00231377)
(0.0133851 0 0.00212405)
(0.0130585 0 0.00194272)
(0.0127592 0 0.00177065)
(0.0124858 0 0.0016084)
(0.0122369 0 0.0014563)
(0.0120111 0 0.00131446)
(0.0118068 0 0.00118283)
(0.0116226 0 0.0010612)
(0.0114569 0 0.00094928)
(0.0113084 0 0.000846661)
(0.0111756 0 0.00075289)
(0.0110572 0 0.000667465)
(0.010952 0 0.000589855)
(0.0108588 0 0.000519517)
(0.0107765 0 0.000455898)
(0.010704 0 0.000398456)
(0.0106404 0 0.000346657)
(0.010585 0 0.000299984)
(0.0105368 0 0.000257941)
(0.0104952 0 0.000220056)
(0.0104595 0 0.000185879)
(0.0104293 0 0.000154986)
(0.0104038 0 0.00012698)
(0.0103828 0 0.000101485)
(0.0103659 0 7.81484e-05)
(0.0103526 0 5.66417e-05)
(0.0103427 0 3.66545e-05)
(0.010336 0 1.78952e-05)
(0.0103323 0 8.90826e-08)
(0.0103314 0 -1.70226e-05)
(0.0103332 0 -3.36898e-05)
(0.0103377 0 -5.01588e-05)
(0.0103448 0 -6.6672e-05)
(0.0103545 0 -8.34707e-05)
(0.0103668 0 -0.000100798)
(0.0103819 0 -0.000118903)
(0.0103998 0 -0.000138043)
(0.0104206 0 -0.000158486)
(0.0104447 0 -0.00018052)
(0.0104721 0 -0.000204452)
(0.0105032 0 -0.000230616)
(0.0105383 0 -0.000259377)
(0.0105777 0 -0.00029114)
(0.0106218 0 -0.000326355)
(0.0106712 0 -0.000365529)
(0.0107263 0 -0.000409233)
(0.0107877 0 -0.000458115)
(0.0108562 0 -0.000512915)
(0.0109324 0 -0.000574484)
(0.0110173 0 -0.000643798)
(0.0111117 0 -0.000721991)
(0.0112168 0 -0.00081038)
(0.0113335 0 -0.000910505)
(0.0114633 0 -0.00102417)
(0.0116075 0 -0.0011535)
(0.0117677 0 -0.00130102)
(0.0119454 0 -0.00146974)
(0.0121426 0 -0.00166325)
(0.0123611 0 -0.00188589)
(0.0126028 0 -0.00214291)
(0.0128696 0 -0.00244073)
(0.0131633 0 -0.00278724)
(0.0134853 0 -0.00319216)
(0.0138363 0 -0.00366759)
(0.0142154 0 -0.00422859)
(0.0146196 0 -0.00489391)
(0.0150418 0 -0.00568669)
(0.0154685 0 -0.00663505)
(0.0158761 0 -0.00777195)
(0.0162254 0 -0.00913345)
(0.0164548 0 -0.0107538)
(0.0164724 0 -0.0126549)