/*--------------------------------*- C++ -*----------------------------------*\
  =========                 |
  \\      /  F ield         | OpenFOAM: The Open Source CFD Toolbox
   \\    /   O peration     | Website:  https://openfoam.org
    \\  /    A nd           | Version:  12
     \\/     M anipulation  |
\*---------------------------------------------------------------------------*/
FoamFile
{
    format      ascii;
    class       volScalarField;
    location    "505";
    object      T;
}
// * * * * * * * * * * * * * * * * * * * * * * * * * * * * * * * * * * * * * //

dimensions      [];

internalField   nonuniform List<scalar> 
4480
(
6.11434e-06
0.000296054
0.0266174
0.137204
0.279971
0.411345
0.519433
0.604642
0.6708
0.722014
0.761773
0.792806
0.817176
0.83643
0.851718
0.8639
0.873619
0.881366
0.887507
0.892326
0.896046
0.898836
0.900829
0.902127
0.902814
0.902956
0.902604
0.901989
0.901365
0.90073
0.900084
0.89942
0.898735
0.898027
0.89729
0.896524
0.895723
0.894885
0.894001
0.893074
0.892099
0.891065
0.889971
0.888815
0.88759
0.886288
0.884905
0.883439
0.881878
0.880214
0.878449
0.876577
0.874579
0.872457
0.870202
0.867802
0.865259
0.862564
0.859701
0.856672
0.85346
0.850065
0.846475
0.842687
0.838685
0.834474
0.830032
0.825369
0.820455
0.815308
0.809899
0.804233
0.798296
0.792085
0.785588
0.778799
0.77171
0.764313
0.756599
0.74856
0.740187
0.731472
0.722406
0.713035
0.703364
0.693391
0.683114
0.672532
0.661646
0.650457
0.638968
0.627187
0.615124
0.602791
0.59021
0.577404
0.564411
0.551277
0.538064
0.524848
0.511722
0.498802
0.48621
0.474114
0.462677
0.45209
0.442563
0.434313
0.427565
0.422554
0.419513
0.418668
0.420237
0.424431
0.431426
0.441387
0.45442
0.47059
0.489899
0.512359
0.538245
0.568492
0.604727
0.650958
0.723022
0.828201
0.901802
0.957231
0.947134
0.8697
0.795072
0.684017
0.584919
0.505014
0.431513
0.360821
0.291114
0.220903
0.150158
0.0779035
2.49818e-06
0.00744814
0.129299
0.344397
0.534516
0.672674
0.766855
0.830045
0.872638
0.901761
0.922044
0.936458
0.946914
0.954643
0.960445
0.964865
0.968266
0.970897
0.972935
0.974509
0.975712
0.976606
0.977246
0.977666
0.977898
0.977961
0.977873
0.977534
0.976859
0.975883
0.974638
0.973157
0.971473
0.969614
0.967605
0.965473
0.963241
0.960927
0.958547
0.956117
0.953652
0.951161
0.948647
0.946123
0.943592
0.941054
0.938515
0.935973
0.933425
0.930872
0.92831
0.925741
0.923155
0.920548
0.917919
0.915259
0.912569
0.909838
0.907062
0.904242
0.901361
0.898428
0.895424
0.892353
0.88921
0.885995
0.882693
0.879303
0.875828
0.872264
0.868602
0.864843
0.860983
0.857023
0.852952
0.848776
0.844491
0.840088
0.835582
0.830959
0.826217
0.821369
0.816399
0.81133
0.806175
0.800926
0.795589
0.79018
0.784694
0.779149
0.773554
0.767921
0.762267
0.756614
0.750985
0.745403
0.739908
0.734527
0.729307
0.724299
0.71956
0.715147
0.711136
0.707596
0.704627
0.702309
0.700757
0.700065
0.700358
0.701748
0.704355
0.708281
0.713642
0.720526
0.729003
0.739129
0.750923
0.764388
0.779507
0.796285
0.814801
0.835253
0.857887
0.882885
0.91003
0.937105
0.959686
0.974701
0.962594
0.918241
0.871581
0.819055
0.761655
0.699885
0.632922
0.559754
0.479202
0.39032
0.293374
0.19212
0.00043322
0.0506898
0.297163
0.550196
0.72295
0.827022
0.8878
0.923565
0.945169
0.958698
0.96752
0.973531
0.97779
0.980918
0.983275
0.985092
0.986511
0.987624
0.988501
0.989186
0.989716
0.990115
0.990404
0.990599
0.99071
0.990747
0.990716
0.9906
0.990365
0.990012
0.98954
0.988941
0.988217
0.987357
0.986367
0.985242
0.983987
0.982607
0.981107
0.979494
0.977778
0.975966
0.974069
0.972096
0.970054
0.967957
0.965808
0.963617
0.961388
0.959131
0.956851
0.95455
0.95223
0.949894
0.94755
0.945189
0.942822
0.940443
0.938051
0.93565
0.933236
0.930811
0.928368
0.925914
0.923442
0.92095
0.918441
0.915911
0.913356
0.910783
0.908176
0.90555
0.902894
0.900211
0.897493
0.894749
0.891977
0.889169
0.88633
0.883467
0.880565
0.87764
0.874678
0.871695
0.868684
0.865659
0.862625
0.859581
0.85653
0.85349
0.850462
0.847459
0.844498
0.841585
0.838744
0.835995
0.833357
0.830857
0.828528
0.826402
0.824511
0.822896
0.82161
0.820689
0.820194
0.820179
0.820693
0.821802
0.823568
0.826039
0.829273
0.833317
0.838215
0.84399
0.850661
0.85822
0.866658
0.875931
0.885994
0.896791
0.908252
0.920284
0.932715
0.945216
0.95724
0.967932
0.976125
0.980322
0.971574
0.943182
0.913077
0.879477
0.840832
0.795572
0.741895
0.677647
0.600311
0.507339
0.397232
0.271661
0.00568907
0.164244
0.490879
0.722533
0.848531
0.912422
0.94499
0.962282
0.972053
0.97802
0.981976
0.984805
0.986954
0.988644
0.989997
0.991091
0.991979
0.992693
0.993266
0.993718
0.99407
0.994337
0.994531
0.994666
0.994748
0.994782
0.994774
0.99472
0.994613
0.994452
0.994236
0.99396
0.993621
0.993212
0.992725
0.992159
0.991508
0.990762
0.989926
0.988992
0.987964
0.986842
0.985626
0.984324
0.982937
0.981473
0.979936
0.978335
0.976674
0.974962
0.973205
0.971407
0.969578
0.967718
0.965838
0.963942
0.962031
0.960107
0.95818
0.956246
0.954313
0.952375
0.950442
0.948513
0.946585
0.944661
0.942745
0.94083
0.938924
0.937019
0.935117
0.933223
0.93133
0.929442
0.927555
0.925669
0.923786
0.92191
0.920032
0.918153
0.916277
0.914408
0.912546
0.910676
0.908814
0.906959
0.905114
0.903287
0.901479
0.899694
0.897939
0.896223
0.894557
0.892945
0.89141
0.889952
0.888601
0.887363
0.886262
0.885321
0.884566
0.884016
0.883706
0.883662
0.883923
0.884509
0.885466
0.88682
0.888605
0.890851
0.893585
0.896825
0.900589
0.904882
0.909693
0.915006
0.920795
0.927013
0.933602
0.940485
0.947568
0.954711
0.96173
0.968359
0.97425
0.978939
0.981816
0.982004
0.975746
0.956265
0.934825
0.910997
0.883309
0.849898
0.80828
0.755037
0.685614
0.594196
0.474511
0.322211
0.0297964
0.339562
0.672901
0.845786
0.921616
0.954556
0.969743
0.977481
0.981969
0.984982
0.987256
0.989105
0.990651
0.991949
0.993028
0.993912
0.994629
0.995201
0.995649
0.995994
0.996255
0.996447
0.996584
0.996674
0.99673
0.996756
0.996756
0.996727
0.996665
0.996571
0.996443
0.996281
0.996084
0.995847
0.995568
0.995243
0.994866
0.994434
0.993941
0.993386
0.992761
0.992069
0.991302
0.990465
0.989555
0.988575
0.987528
0.986415
0.985241
0.984011
0.98273
0.981403
0.980034
0.97863
0.977198
0.975743
0.974268
0.972776
0.971277
0.96977
0.968261
0.966752
0.96525
0.963755
0.962263
0.960788
0.959322
0.957868
0.95643
0.955006
0.953597
0.9522
0.950823
0.949458
0.948111
0.946776
0.94546
0.944156
0.942862
0.941588
0.940326
0.939078
0.937847
0.936626
0.93542
0.93423
0.933057
0.931901
0.930771
0.929669
0.928598
0.927563
0.926575
0.925637
0.924757
0.923945
0.923214
0.922577
0.922042
0.921631
0.921352
0.921226
0.921273
0.921511
0.921957
0.922638
0.923568
0.924767
0.926254
0.92805
0.930157
0.932592
0.935352
0.938437
0.941834
0.945517
0.949461
0.953621
0.957943
0.962351
0.966756
0.971045
0.975066
0.978629
0.981487
0.983336
0.983754
0.982134
0.977109
0.963347
0.946699
0.92831
0.907155
0.881702
0.849547
0.806794
0.747376
0.661869
0.536944
0.356893
0.0903741
0.533662
0.813229
0.919727
0.957956
0.972866
0.979644
0.983392
0.985945
0.988002
0.989816
0.991428
0.992828
0.994012
0.994979
0.995752
0.996353
0.996808
0.997145
0.997383
0.997546
0.997652
0.997717
0.997753
0.997768
0.997772
0.997765
0.99775
0.997712
0.997655
0.997576
0.997475
0.997352
0.997204
0.99703
0.996826
0.996591
0.996319
0.996009
0.995659
0.995263
0.994818
0.994321
0.993773
0.99317
0.992511
0.991797
0.991028
0.990209
0.989338
0.98842
0.987459
0.986458
0.985421
0.984353
0.98326
0.982145
0.981013
0.979865
0.978711
0.977556
0.976395
0.97524
0.974088
0.972945
0.971814
0.970693
0.969587
0.968501
0.967426
0.96637
0.96533
0.964311
0.96331
0.962325
0.961361
0.960411
0.959482
0.958572
0.957676
0.956797
0.955939
0.955098
0.954275
0.953461
0.952665
0.951888
0.951131
0.950395
0.949682
0.949
0.948349
0.947734
0.947159
0.946632
0.946159
0.945748
0.94541
0.945147
0.944971
0.944898
0.944933
0.945092
0.945389
0.945831
0.946437
0.947212
0.948176
0.949335
0.950694
0.952266
0.954046
0.956034
0.958223
0.960601
0.963141
0.965821
0.968598
0.971427
0.974243
0.976971
0.979515
0.981757
0.983548
0.984705
0.984993
0.984094
0.981573
0.976815
0.967124
0.953456
0.938304
0.921035
0.900567
0.875027
0.840779
0.791349
0.714579
0.589243
0.382906
0.19329
0.706022
0.902039
0.956536
0.973505
0.980198
0.983665
0.986001
0.98795
0.989772
0.991515
0.993103
0.994461
0.995566
0.996431
0.997087
0.99756
0.997883
0.998083
0.998191
0.99823
0.998224
0.998192
0.998152
0.998111
0.998079
0.998056
0.998046
0.998026
0.997999
0.997963
0.997914
0.997851
0.997774
0.99768
0.997563
0.997425
0.997262
0.997071
0.996852
0.9966
0.996311
0.995987
0.995624
0.995221
0.994774
0.994285
0.993752
0.993179
0.992562
0.991905
0.991213
0.990484
0.989722
0.988933
0.988119
0.987281
0.986429
0.985563
0.984686
0.983804
0.982918
0.982034
0.981151
0.980279
0.979414
0.978557
0.977715
0.976885
0.976073
0.975275
0.974495
0.973728
0.972984
0.972256
0.971544
0.970848
0.970169
0.969511
0.968871
0.968242
0.967634
0.967047
0.966466
0.965903
0.965356
0.964823
0.964307
0.963811
0.963336
0.962882
0.962454
0.962059
0.961691
0.961363
0.961072
0.960832
0.960642
0.960509
0.960443
0.960447
0.960534
0.960709
0.960979
0.961356
0.961844
0.962454
0.963191
0.964059
0.965067
0.96621
0.967491
0.968904
0.970443
0.972091
0.973826
0.975626
0.977459
0.979281
0.981038
0.982667
0.984085
0.985195
0.98588
0.985984
0.985321
0.983648
0.980635
0.975871
0.96856
0.957303
0.944276
0.929438
0.912023
0.890751
0.862601
0.821663
0.754589
0.633032
0.4039
0.329659
0.833114
0.947739
0.971952
0.979688
0.983308
0.985606
0.987474
0.989259
0.99108
0.992879
0.99448
0.995788
0.996797
0.997538
0.998053
0.998376
0.99854
0.998577
0.99852
0.998402
0.99825
0.998095
0.997951
0.997833
0.997749
0.997702
0.99769
0.997688
0.997693
0.997701
0.997707
0.997711
0.997707
0.997692
0.997662
0.997615
0.997549
0.997462
0.997347
0.99721
0.997042
0.996844
0.996615
0.996352
0.996059
0.995729
0.995364
0.994964
0.994533
0.994066
0.993567
0.993038
0.992483
0.9919
0.991295
0.990672
0.990031
0.989378
0.988715
0.988047
0.987371
0.986697
0.986025
0.985353
0.984692
0.984038
0.983395
0.982761
0.98214
0.981534
0.980944
0.980364
0.979805
0.979255
0.978723
0.978207
0.977705
0.977221
0.97675
0.976292
0.975855
0.975428
0.975017
0.974615
0.974226
0.973851
0.973487
0.973141
0.972814
0.9725
0.972208
0.971942
0.971696
0.971477
0.971293
0.971141
0.97103
0.970959
0.970939
0.970967
0.971059
0.971208
0.971429
0.971725
0.972097
0.972556
0.973098
0.973733
0.974458
0.975277
0.97618
0.977166
0.978226
0.979346
0.980506
0.981686
0.982853
0.98397
0.984995
0.985863
0.986514
0.986859
0.986799
0.986205
0.984923
0.982757
0.979462
0.974746
0.968291
0.959324
0.947814
0.934631
0.919165
0.900579
0.876448
0.841913
0.783915
0.668969
0.42183
0.485807
0.907396
0.966454
0.977943
0.982427
0.984936
0.986786
0.988479
0.990255
0.992161
0.99405
0.995656
0.996883
0.997766
0.998361
0.998718
0.998868
0.998841
0.998675
0.998408
0.998086
0.997749
0.997428
0.997149
0.99693
0.99678
0.9967
0.996684
0.996699
0.996742
0.996804
0.996878
0.996959
0.997043
0.997123
0.997192
0.997248
0.997285
0.9973
0.997296
0.997264
0.997208
0.997123
0.99701
0.996866
0.996693
0.996487
0.996253
0.995989
0.995695
0.995372
0.995021
0.994645
0.994244
0.993819
0.993376
0.992912
0.992435
0.991944
0.991444
0.990938
0.990427
0.989911
0.989398
0.988887
0.988379
0.98788
0.987386
0.986901
0.986428
0.985966
0.985514
0.985075
0.984644
0.98423
0.983828
0.983439
0.983064
0.9827
0.982349
0.982009
0.981685
0.981372
0.981071
0.980776
0.980492
0.980221
0.97996
0.979712
0.979473
0.979253
0.979043
0.978855
0.978682
0.978532
0.978405
0.978304
0.978227
0.978187
0.978177
0.978209
0.978279
0.978395
0.978559
0.978776
0.979046
0.979377
0.979764
0.980211
0.980716
0.981284
0.9819
0.982565
0.983269
0.983997
0.984732
0.985457
0.986139
0.986747
0.987239
0.987564
0.987665
0.987464
0.986873
0.985789
0.984078
0.981584
0.978113
0.973454
0.967375
0.959658
0.949747
0.937777
0.923647
0.906819
0.885251
0.85514
0.804652
0.697591
0.437833
0.640883
0.93925
0.972845
0.980677
0.983965
0.985972
0.987601
0.989237
0.991064
0.993093
0.995086
0.996662
0.997771
0.998505
0.998947
0.999129
0.999076
0.998813
0.998387
0.997853
0.997267
0.996685
0.996152
0.995702
0.995356
0.995123
0.995003
0.994983
0.995022
0.995111
0.995241
0.995403
0.995584
0.995776
0.99597
0.99616
0.996337
0.996496
0.996634
0.996749
0.996837
0.996896
0.996925
0.996923
0.996893
0.996834
0.996742
0.996621
0.996471
0.996294
0.996086
0.995854
0.995598
0.995317
0.995018
0.994701
0.994364
0.994015
0.993652
0.993277
0.992898
0.992512
0.992123
0.991732
0.991343
0.990956
0.990573
0.990197
0.989825
0.989462
0.989104
0.988759
0.988422
0.988096
0.987778
0.987471
0.987175
0.986887
0.986613
0.986345
0.98609
0.985846
0.985609
0.985384
0.985163
0.984954
0.984752
0.984557
0.98437
0.984196
0.98403
0.983876
0.983733
0.983608
0.983496
0.983402
0.983323
0.983267
0.983235
0.983223
0.983243
0.983288
0.983365
0.983478
0.983624
0.983808
0.98403
0.984287
0.984586
0.98492
0.985287
0.985682
0.9861
0.986531
0.986961
0.987375
0.987753
0.988068
0.988291
0.988383
0.9883
0.987986
0.987376
0.986393
0.984949
0.982926
0.980201
0.976616
0.972007
0.96619
0.958981
0.9502
0.939509
0.926365
0.910757
0.890853
0.863649
0.818807
0.719548
0.452608
0.749765
0.956126
0.976918
0.982333
0.984962
0.98669
0.988196
0.989824
0.991733
0.993913
0.996001
0.997511
0.998471
0.99905
0.99933
0.99932
0.999021
0.998462
0.997701
0.996819
0.995893
0.994998
0.994197
0.993534
0.99303
0.992701
0.992539
0.992515
0.992587
0.992741
0.992964
0.993237
0.993546
0.993876
0.994216
0.994553
0.994879
0.995185
0.995471
0.995725
0.995949
0.996142
0.996298
0.996419
0.996506
0.996559
0.996579
0.996566
0.996523
0.99645
0.996349
0.996221
0.99607
0.995894
0.995697
0.99548
0.995248
0.995001
0.994739
0.994469
0.99419
0.993904
0.993613
0.993321
0.993027
0.992734
0.992443
0.992153
0.991871
0.991591
0.99132
0.991055
0.990795
0.990545
0.990298
0.990065
0.989836
0.989617
0.989405
0.989198
0.989001
0.988815
0.988631
0.988459
0.988294
0.988131
0.987974
0.987824
0.987684
0.987546
0.987421
0.9873
0.987188
0.987089
0.986996
0.98692
0.986855
0.986803
0.986766
0.986749
0.986749
0.986768
0.986806
0.986871
0.986952
0.987063
0.987192
0.987346
0.987521
0.987715
0.987925
0.988145
0.988365
0.98858
0.988777
0.988936
0.989043
0.989069
0.988988
0.988769
0.988366
0.987732
0.986806
0.985523
0.983801
0.981545
0.978648
0.974983
0.970412
0.964782
0.957927
0.949665
0.939757
0.927833
0.913122
0.894365
0.869044
0.828113
0.735651
0.466611
0.834366
0.965505
0.979573
0.983649
0.985701
0.987196
0.988628
0.990276
0.992289
0.994629
0.996813
0.998213
0.999004
0.999431
0.999549
0.999316
0.998709
0.997766
0.996571
0.995237
0.993877
0.992593
0.991462
0.990541
0.989856
0.989417
0.989217
0.989198
0.989321
0.989566
0.98991
0.99033
0.990804
0.99131
0.991832
0.992355
0.992865
0.993354
0.993812
0.994235
0.994617
0.99496
0.995262
0.995518
0.995736
0.995911
0.996048
0.996147
0.99621
0.99624
0.996239
0.996209
0.996151
0.996069
0.995964
0.995838
0.995694
0.995534
0.995361
0.995174
0.994979
0.994775
0.994565
0.99435
0.994135
0.993917
0.993698
0.993481
0.993266
0.993054
0.992846
0.992643
0.992444
0.99225
0.992062
0.99188
0.991705
0.991533
0.991367
0.991208
0.991055
0.990909
0.990765
0.99063
0.990498
0.990372
0.990247
0.990128
0.990015
0.989904
0.989799
0.989701
0.989608
0.98952
0.989442
0.989372
0.989309
0.989256
0.989214
0.98918
0.989158
0.98915
0.989155
0.989171
0.9892
0.989242
0.989294
0.989359
0.989432
0.98951
0.989588
0.989662
0.989724
0.989762
0.989764
0.989718
0.989604
0.989401
0.989078
0.988606
0.987946
0.987054
0.985874
0.984351
0.982413
0.979974
0.976946
0.973221
0.968675
0.963179
0.956579
0.94869
0.939265
0.927929
0.914053
0.896424
0.872347
0.833936
0.746784
0.480166
0.889272
0.971263
0.981394
0.984592
0.986305
0.987583
0.988937
0.990615
0.992736
0.995246
0.99752
0.998774
0.99939
0.999682
0.999635
0.999129
0.998121
0.996675
0.994922
0.993017
0.991119
0.989358
0.987834
0.986611
0.985721
0.985173
0.984947
0.984947
0.985147
0.985519
0.986027
0.986639
0.987325
0.988055
0.988805
0.989556
0.990291
0.990996
0.991661
0.992281
0.992852
0.993369
0.993833
0.994244
0.994604
0.994913
0.995177
0.995395
0.995568
0.995705
0.995804
0.995872
0.995904
0.99591
0.995891
0.995848
0.995785
0.995702
0.995606
0.995492
0.99537
0.995236
0.995094
0.994947
0.994793
0.994638
0.994478
0.994319
0.99416
0.994002
0.993845
0.993692
0.993541
0.993391
0.993247
0.993105
0.992967
0.992833
0.992704
0.99258
0.992457
0.992338
0.992226
0.992115
0.992008
0.991904
0.991803
0.991703
0.991608
0.991513
0.991423
0.991338
0.991254
0.991173
0.991099
0.991029
0.990961
0.990902
0.990846
0.990795
0.990752
0.990716
0.990683
0.990659
0.990639
0.990622
0.990606
0.990594
0.990577
0.990556
0.990524
0.990475
0.990398
0.990291
0.990135
0.989916
0.989617
0.989219
0.988695
0.988014
0.98714
0.986038
0.984653
0.982934
0.980823
0.978238
0.975104
0.971326
0.966799
0.9614
0.954985
0.94737
0.938305
0.927418
0.914079
0.897109
0.873926
0.837019
0.753739
0.4935
0.91429
0.976719
0.982687
0.985267
0.986728
0.98791
0.989161
0.990851
0.993083
0.995769
0.998135
0.999208
0.999652
0.999838
0.999607
0.998752
0.997222
0.995126
0.992665
0.990057
0.987508
0.985181
0.983201
0.981644
0.980539
0.979888
0.979662
0.979707
0.980022
0.980564
0.981287
0.982145
0.983097
0.984103
0.985133
0.98616
0.98716
0.98812
0.98903
0.989877
0.990662
0.991379
0.992029
0.992612
0.993131
0.993588
0.993988
0.994333
0.994626
0.994873
0.995076
0.995239
0.995366
0.995459
0.995522
0.995557
0.995571
0.995561
0.995533
0.995488
0.995427
0.995356
0.995274
0.995184
0.995086
0.994983
0.994875
0.994765
0.994651
0.994538
0.994423
0.994308
0.994193
0.994082
0.993972
0.99386
0.993755
0.993647
0.993545
0.993442
0.993345
0.993247
0.993154
0.993062
0.992974
0.992884
0.992796
0.992711
0.992625
0.992542
0.992457
0.992376
0.992296
0.992218
0.99214
0.992065
0.99199
0.991918
0.991849
0.991781
0.991714
0.991649
0.991583
0.991517
0.99145
0.99138
0.991304
0.991221
0.991128
0.991019
0.99089
0.990732
0.990541
0.990304
0.99001
0.989644
0.989192
0.988628
0.987931
0.987073
0.986022
0.98474
0.983182
0.981306
0.979048
0.976342
0.973123
0.969303
0.964786
0.959458
0.953182
0.945771
0.93698
0.926436
0.913516
0.897072
0.874591
0.838836
0.758312
0.503183
0.92999
0.978696
0.983625
0.98574
0.98701
0.988111
0.989359
0.990987
0.993328
0.996194
0.998656
0.999524
0.99982
0.999925
0.999479
0.998165
0.995954
0.993038
0.989704
0.986249
0.98293
0.979955
0.977465
0.975544
0.974223
0.973493
0.973304
0.973436
0.973919
0.974692
0.975696
0.976864
0.978142
0.979484
0.980846
0.982196
0.983509
0.984766
0.985951
0.987057
0.988081
0.98902
0.989874
0.990646
0.991339
0.991956
0.992504
0.992982
0.993402
0.993764
0.994075
0.994338
0.994558
0.99474
0.994885
0.994999
0.995084
0.995144
0.995182
0.9952
0.995199
0.995184
0.995156
0.995116
0.995067
0.99501
0.994945
0.994876
0.994803
0.994724
0.994643
0.994563
0.99448
0.994396
0.994312
0.994228
0.994142
0.994058
0.993974
0.993891
0.993809
0.993729
0.993649
0.99357
0.993491
0.993412
0.993332
0.993254
0.993172
0.993094
0.993012
0.99293
0.992848
0.992768
0.992684
0.992602
0.992517
0.99243
0.992345
0.992254
0.992164
0.99207
0.991969
0.991865
0.991755
0.991635
0.991503
0.991357
0.991192
0.991004
0.990787
0.990537
0.990242
0.989893
0.989476
0.988983
0.988392
0.987686
0.986842
0.985832
0.984628
0.983195
0.981495
0.97948
0.977098
0.974297
0.971007
0.967149
0.962638
0.957362
0.951189
0.943936
0.935359
0.925085
0.912501
0.896475
0.874554
0.839692
0.761222
0.509983
0.940878
0.980194
0.984373
0.986043
0.987149
0.988195
0.989458
0.991103
0.993471
0.996515
0.999087
0.999742
0.999917
0.99997
0.99925
0.997333
0.994253
0.990323
0.985943
0.981494
0.977294
0.973588
0.97054
0.968243
0.966724
0.965955
0.965763
0.966045
0.966776
0.96787
0.969241
0.970807
0.972493
0.97424
0.975996
0.977723
0.979391
0.98098
0.982475
0.983867
0.985153
0.986332
0.987407
0.988381
0.989258
0.990044
0.990746
0.99137
0.991919
0.992401
0.992824
0.993189
0.993504
0.993773
0.994001
0.994191
0.994348
0.994475
0.994576
0.994653
0.994708
0.994746
0.994768
0.994773
0.994768
0.994753
0.994727
0.994694
0.994654
0.994609
0.994559
0.994503
0.994446
0.994385
0.994322
0.994258
0.994192
0.994123
0.994055
0.993987
0.993914
0.993843
0.993772
0.993703
0.99363
0.993555
0.993481
0.993403
0.993325
0.993244
0.993161
0.993078
0.992989
0.992901
0.992809
0.992715
0.992615
0.992514
0.992408
0.992297
0.992182
0.992055
0.991925
0.991784
0.991627
0.99146
0.991275
0.99107
0.990841
0.990581
0.990285
0.989949
0.98956
0.989109
0.98859
0.987981
0.98727
0.986438
0.985464
0.984321
0.982986
0.981422
0.979598
0.97747
0.974988
0.972103
0.968753
0.964864
0.960354
0.955121
0.949025
0.941895
0.93349
0.923434
0.911122
0.895441
0.873973
0.839817
0.762888
0.514569
0.948755
0.98127
0.984802
0.986204
0.987168
0.988152
0.98944
0.991185
0.993531
0.996734
0.999435
0.999879
0.999967
0.99999
0.998911
0.996215
0.992051
0.9869
0.981293
0.975706
0.970517
0.966007
0.962366
0.959695
0.958013
0.957267
0.957117
0.957631
0.958701
0.96021
0.962041
0.964089
0.96626
0.968478
0.970685
0.972836
0.974899
0.976849
0.978676
0.980375
0.981939
0.983371
0.984676
0.985859
0.986927
0.987888
0.988748
0.989516
0.990199
0.990803
0.991335
0.991805
0.992215
0.992573
0.992882
0.993151
0.993375
0.993568
0.993729
0.993862
0.993973
0.994058
0.994126
0.994177
0.994212
0.994233
0.994243
0.994241
0.994232
0.994213
0.994189
0.994156
0.994121
0.994077
0.994033
0.993984
0.99393
0.993875
0.993818
0.993758
0.993695
0.993632
0.993566
0.993497
0.993426
0.993354
0.993279
0.993202
0.993121
0.993037
0.992949
0.992856
0.992762
0.992663
0.992561
0.992451
0.992337
0.992218
0.992091
0.991957
0.991813
0.99166
0.991494
0.991315
0.99112
0.990904
0.99067
0.990408
0.990118
0.989792
0.989424
0.989008
0.988534
0.987995
0.987376
0.986665
0.985847
0.984903
0.983817
0.982561
0.981111
0.979437
0.977506
0.97528
0.972709
0.969755
0.966356
0.96244
0.95793
0.952726
0.946696
0.939668
0.931402
0.921529
0.90945
0.894054
0.872971
0.839383
0.763594
0.517438
0.954593
0.982027
0.985023
0.986227
0.987053
0.987983
0.989295
0.991145
0.993586
0.996841
0.9997
0.999955
0.999991
0.999997
0.998448
0.994761
0.98928
0.982693
0.975685
0.968826
0.962547
0.957167
0.952904
0.949871
0.948082
0.94745
0.947489
0.948344
0.949871
0.951902
0.954293
0.956908
0.959632
0.962377
0.965075
0.967683
0.970161
0.972493
0.974663
0.976672
0.978519
0.980207
0.981743
0.983136
0.984394
0.985529
0.986546
0.987457
0.988271
0.988997
0.98964
0.99021
0.990713
0.991157
0.991545
0.991884
0.992181
0.992435
0.992656
0.992842
0.993003
0.993135
0.993245
0.993336
0.993409
0.993463
0.993504
0.993531
0.993548
0.993554
0.993551
0.993538
0.99352
0.993492
0.993461
0.993425
0.993383
0.993336
0.993285
0.99323
0.993174
0.99311
0.993045
0.99298
0.992908
0.992836
0.992756
0.992675
0.992588
0.992498
0.992401
0.992301
0.992193
0.992083
0.991966
0.991842
0.991711
0.99157
0.991422
0.991261
0.99109
0.990908
0.990707
0.990492
0.990258
0.989999
0.989714
0.989401
0.989052
0.988662
0.988228
0.98774
0.987189
0.986563
0.985858
0.985055
0.984142
0.983104
0.981915
0.980558
0.979008
0.977237
0.975216
0.972902
0.970263
0.96725
0.963807
0.95987
0.955363
0.950186
0.944211
0.937268
0.929121
0.919404
0.907522
0.892384
0.871625
0.838502
0.763562
0.518974
0.958974
0.982544
0.98509
0.986106
0.986811
0.987674
0.989011
0.990978
0.99361
0.996862
0.999884
0.999988
0.999997
0.999999
0.997844
0.992927
0.985876
0.977645
0.969078
0.960825
0.953364
0.947045
0.942129
0.938762
0.936956
0.936459
0.936835
0.938215
0.940381
0.943107
0.946196
0.949482
0.952834
0.956155
0.959376
0.962451
0.96535
0.968058
0.970566
0.972877
0.974994
0.976926
0.978683
0.980275
0.981712
0.983012
0.984179
0.985227
0.986164
0.987002
0.987752
0.988421
0.989011
0.989539
0.990003
0.990412
0.990772
0.991089
0.991362
0.991601
0.991805
0.991981
0.992132
0.992259
0.992363
0.99245
0.992517
0.99257
0.99261
0.992636
0.99265
0.992655
0.992652
0.992638
0.992616
0.992588
0.992554
0.992511
0.992464
0.992413
0.992358
0.992296
0.992229
0.992158
0.992084
0.992007
0.991921
0.991832
0.991738
0.991639
0.991533
0.991419
0.991301
0.991175
0.991041
0.9909
0.990748
0.990586
0.990414
0.990228
0.990029
0.989815
0.989583
0.989332
0.989055
0.988753
0.988423
0.988058
0.987655
0.987206
0.986709
0.986152
0.985529
0.984831
0.984046
0.983159
0.982161
0.981033
0.979756
0.978312
0.976676
0.974822
0.97272
0.97034
0.96764
0.964576
0.961102
0.957149
0.952648
0.947492
0.941569
0.934705
0.926663
0.917085
0.905383
0.890471
0.870006
0.837272
0.762958
0.519466
0.96228
0.982852
0.985007
0.985817
0.986436
0.987225
0.988576
0.990666
0.993505
0.99688
0.999983
0.999999
1
1
0.997076
0.990664
0.981793
0.971723
0.961458
0.951712
0.94298
0.935645
0.930035
0.926374
0.924677
0.924103
0.925078
0.927286
0.930382
0.934047
0.93802
0.9421
0.946151
0.95008
0.953829
0.957363
0.960658
0.963717
0.966531
0.969115
0.971476
0.973628
0.97558
0.977349
0.978946
0.980392
0.981694
0.982865
0.983915
0.984858
0.985702
0.986457
0.98713
0.987731
0.988264
0.988738
0.989157
0.989526
0.989851
0.990137
0.990385
0.9906
0.990785
0.990945
0.991079
0.991191
0.991283
0.991359
0.991417
0.991459
0.991491
0.991507
0.991514
0.99151
0.991495
0.991473
0.991443
0.991404
0.991357
0.991307
0.991249
0.991183
0.991113
0.991039
0.990958
0.990872
0.99078
0.990681
0.990574
0.990463
0.990343
0.990216
0.990084
0.98994
0.989789
0.989626
0.989454
0.989269
0.989073
0.988861
0.988633
0.988388
0.988122
0.987832
0.987516
0.987173
0.986797
0.986385
0.985929
0.985427
0.984869
0.984251
0.983562
0.982794
0.981936
0.980977
0.979904
0.978697
0.977341
0.975822
0.97411
0.972185
0.970018
0.96758
0.964831
0.96173
0.958232
0.954267
0.949771
0.944645
0.938769
0.931973
0.924034
0.91459
0.903055
0.888356
0.86816
0.835758
0.761902
0.519129
0.964742
0.983001
0.984809
0.985422
0.98592
0.986616
0.987974
0.990194
0.993267
0.996897
1
0.999999
0.999998
0.999999
0.996126
0.987936
0.976994
0.964922
0.952861
0.941552
0.931468
0.923004
0.916605
0.912691
0.911294
0.911226
0.913084
0.916386
0.920634
0.925393
0.93034
0.935253
0.940001
0.944506
0.948736
0.952667
0.956305
0.959652
0.962719
0.965524
0.96808
0.970407
0.972519
0.974432
0.976162
0.977729
0.97914
0.98041
0.981556
0.982589
0.983511
0.984341
0.985084
0.985749
0.98634
0.98687
0.98734
0.987758
0.988128
0.988453
0.988739
0.988986
0.989203
0.989391
0.989549
0.989686
0.989797
0.989891
0.989964
0.99002
0.990061
0.990086
0.990101
0.990103
0.990093
0.990073
0.990041
0.990005
0.989955
0.989901
0.989837
0.989769
0.989692
0.989609
0.989519
0.989423
0.989318
0.989207
0.989088
0.988963
0.988829
0.988685
0.988534
0.988373
0.9882
0.988017
0.987821
0.987615
0.987391
0.987151
0.986896
0.986616
0.986316
0.985993
0.985639
0.985254
0.984836
0.984374
0.983872
0.983316
0.982703
0.982027
0.981277
0.980447
0.979524
0.978499
0.977356
0.976082
0.97466
0.973073
0.971298
0.969314
0.967092
0.964607
0.96182
0.95869
0.955175
0.951211
0.946726
0.941629
0.935798
0.929079
0.921238
0.911925
0.900559
0.886068
0.866119
0.834019
0.760484
0.518134
0.966534
0.98302
0.984508
0.984913
0.985256
0.985839
0.987189
0.989543
0.992883
0.996837
1
1
0.999998
0.999997
0.994985
0.984706
0.971464
0.957273
0.943379
0.930487
0.918977
0.909208
0.901793
0.897654
0.895982
0.89709
0.900732
0.905912
0.911813
0.917897
0.923857
0.929547
0.93488
0.939836
0.944418
0.948634
0.952501
0.956045
0.95928
0.962231
0.964921
0.967363
0.969582
0.971592
0.973418
0.975068
0.976558
0.977908
0.979123
0.980219
0.981206
0.982093
0.982891
0.983606
0.984248
0.984818
0.98533
0.985785
0.98619
0.986547
0.986862
0.987138
0.987379
0.987588
0.987769
0.987922
0.988048
0.988153
0.988239
0.988303
0.988354
0.988385
0.988401
0.988404
0.988396
0.988374
0.988341
0.988299
0.988247
0.988186
0.988115
0.988036
0.98795
0.987855
0.987754
0.987646
0.987528
0.987402
0.987269
0.987125
0.986974
0.986813
0.986642
0.986459
0.986266
0.986058
0.985841
0.985606
0.985354
0.985088
0.9848
0.984492
0.984156
0.983796
0.983404
0.982982
0.982519
0.982014
0.981464
0.980859
0.980197
0.979466
0.978661
0.977775
0.976795
0.97571
0.974507
0.973174
0.971697
0.970053
0.968224
0.966194
0.963931
0.961408
0.958593
0.955446
0.951922
0.94796
0.943493
0.938431
0.932658
0.926015
0.918274
0.909095
0.897898
0.883617
0.863915
0.832092
0.758766
0.5166
0.967763
0.982923
0.984112
0.984248
0.984367
0.98488
0.986208
0.988693
0.992331
0.996685
0.999997
0.999997
0.999998
0.999996
0.993636
0.980942
0.965199
0.948857
0.93319
0.918796
0.905831
0.894498
0.885526
0.880979
0.879485
0.883245
0.890054
0.897852
0.905558
0.912788
0.919472
0.925621
0.931263
0.93643
0.941161
0.945485
0.949437
0.953048
0.956342
0.959344
0.96208
0.964575
0.966839
0.968895
0.970761
0.972459
0.973995
0.975384
0.976641
0.977777
0.978802
0.979727
0.98056
0.98131
0.981983
0.982586
0.983126
0.983607
0.984036
0.984417
0.984752
0.985046
0.985305
0.985529
0.985719
0.985885
0.986022
0.986133
0.986225
0.986293
0.986344
0.986377
0.986393
0.986394
0.986382
0.986358
0.986317
0.986267
0.986207
0.986135
0.986056
0.985964
0.985865
0.985757
0.985641
0.985517
0.985382
0.985239
0.985088
0.984925
0.984753
0.984572
0.984377
0.984174
0.983957
0.983727
0.983481
0.98322
0.982942
0.982644
0.982326
0.981984
0.981616
0.981222
0.980792
0.980331
0.979827
0.97928
0.978685
0.978036
0.977327
0.976547
0.975694
0.974757
0.973724
0.972588
0.971335
0.969952
0.968422
0.966737
0.964867
0.962797
0.960501
0.957954
0.95512
0.951964
0.948436
0.94449
0.940051
0.935032
0.929321
0.922765
0.915138
0.906098
0.895083
0.881019
0.86157
0.830006
0.756803
0.514613
0.968489
0.982731
0.983634
0.983457
0.983278
0.983738
0.98501
0.987621
0.991585
0.996436
1
1
0.999998
1
0.992067
0.976611
0.958226
0.939826
0.922616
0.907001
0.892744
0.879643
0.867937
0.858883
0.862588
0.875192
0.886571
0.895359
0.903429
0.910875
0.917754
0.923856
0.929418
0.934484
0.939113
0.943347
0.947217
0.950753
0.953986
0.956937
0.959635
0.962093
0.96434
0.966378
0.968237
0.969927
0.971466
0.972862
0.974128
0.975277
0.976312
0.97725
0.978098
0.978862
0.97955
0.980167
0.98072
0.981216
0.981656
0.982048
0.982394
0.982698
0.982962
0.983192
0.98339
0.983556
0.983696
0.983809
0.983899
0.983967
0.984015
0.984043
0.984053
0.984047
0.984028
0.98399
0.983942
0.983881
0.983807
0.983723
0.983628
0.983521
0.983406