/*--------------------------------*- C++ -*----------------------------------*\
  =========                 |
  \\      /  F ield         | OpenFOAM: The Open Source CFD Toolbox
   \\    /   O peration     | Website:  https://openfoam.org
    \\  /    A nd           | Version:  13
     \\/     M anipulation  |
\*---------------------------------------------------------------------------*/
FoamFile
{
    format      ascii;
    class       volScalarField;
    location    "549.831886";
    object      T;
}
// * * * * * * * * * * * * * * * * * * * * * * * * * * * * * * * * * * * * * //

dimensions      [0 0 0 1 0 0 0];

internalField   nonuniform List<scalar> 
5712
(
309.812
309.837
309.88
309.919
309.979
310.02
310.115
310.148
310.085
310.124
309.978
310.017
309.899
309.935
309.839
309.867
310.013
310.065
310.082
310.154
310.179
310.245
310.243
310.328
309.727
309.586
309.754
309.622
309.791
309.656
309.834
309.706
309.939
309.86
310.011
309.912
309.743
309.825
310.167
310.293
310.238
310.332
310.319
310.426
310.402
310.484
310.024
310.155
310.1
310.199
309.909
310.035
309.425
309.327
309.492
309.39
309.495
309.373
309.575
309.462
309.598
309.433
309.723
309.568
309.82
309.667
309.933
309.777
310.055
310.078
310.164
310.176
310.275
310.304
310.363
310.392
309.972
309.946
309.845
309.843
310.257
310.258
310.342
310.326
310.443
310.467
310.519
310.531
310.076
310.033
310.17
310.103
309.782
309.597
309.718
309.512
309.647
309.458
309.611
309.397
309.895
309.714
309.807
309.604
309.996
309.817
309.877
309.677
309.195
308.984
309.16
308.952
309.26
309.062
309.196
308.997
309.369
309.217
309.258
309.093
309.902
310.16
309.667
309.491
309.299
310.12
309.847
309.567
309.379
309.174
310.192
309.949
309.715
309.493
309.275
308.789
308.69
308.688
308.6
308.887
308.773
308.755
308.659
309.059
308.93
308.869
308.756
310.054
309.946
309.757
309.613
309.482
309.334
309.264
309.119
308.98
308.836
310.143
310.055
309.871
309.723
309.617
309.449
309.365
309.186
309.049
308.863
310.006
309.841
310.126
309.979
310.273
310.219
310.382
310.347
309.855
309.664
309.738
309.535
310.228
310.081
310.295
310.155
310.469
310.437
310.533
310.507
309.961
309.767
310.029
309.839
309.548
309.321
309.171
308.899
309.453
309.214
309.106
308.839
309.635
309.415
309.232
308.965
309.717
309.495
309.317
309.064
308.651
308.601
308.517
308.634
308.607
308.53
308.714
308.653
308.565
308.682
308.651
308.568
308.843
308.766
308.666
308.755
308.711
308.618
309.814
309.664
309.506
309.458
309.326
309.186
309.191
309.075
308.952
309
308.902
308.784
308.814
308.755
308.646
309.931
309.762
309.582
309.523
309.347
309.171
309.247
309.09
308.931
309.024
308.902
308.762
308.819
308.744
308.618
310.473
310.527
310.522
310.592
310.34
310.407
310.396
310.479
310.492
310.597
310.505
310.603
310.525
310.619
310.549
310.637
310.628
310.58
310.659
310.603
310.642
310.681
310.648
310.713
310.546
310.617
310.66
310.723
310.704
310.763
310.705
310.766
310.704
310.798
310.686
310.773
310.72
310.816
310.716
310.804
310.736
310.84
310.764
310.857
310.785
310.866
310.837
310.902
310.596
310.643
310.661
310.712
310.457
310.497
310.532
310.575
310.751
310.812
310.694
310.75
310.723
310.772
310.785
310.825
310.602
310.641
310.67
310.7
310.806
310.865
310.863
310.912
310.826
310.905
310.876
310.921
310.779
310.866
310.822
310.876
310.871
310.94
310.923
310.96
310.921
310.977
310.965
310.994
310.695
310.643
310.786
310.733
310.698
310.644
310.793
310.739
310.702
310.654
310.806
310.757
310.546
310.38
310.65
310.733
310.82
310.343
310.507
310.602
310.684
310.778
310.413
310.575
310.692
310.77
310.832
310.558
310.441
310.647
310.534
310.566
310.454
310.661
310.553
310.585
310.48
310.689
310.588
310.293
310.202
310.467
310.374
310.566
310.471
310.643
310.546
310.732
310.636
310.382
310.326
310.548
310.491
310.661
310.595
310.733
310.653
310.787
310.69
310.649
310.624
310.72
310.713
310.498
310.478
310.582
310.585
310.808
310.778
310.746
310.702
310.775
310.782
310.827
310.84
310.648
310.665
310.707
310.729
310.857
310.84
310.904
310.892
310.86
310.806
310.881
310.801
310.804
310.737
310.838
310.747
310.906
310.864
310.919
310.848
310.945
310.907
310.953
310.891
310.284
310.128
309.982
310.34
310.164
310.017
310.306
310.148
309.999
310.367
310.189
310.036
310.34
310.185
310.033
310.41
310.224
310.06
310.08
309.93
309.77
310.249
310.094
309.929
310.344
310.181
310.013
310.411
310.248
310.085
310.456
310.26
310.081
310.226
310.062
309.879
310.387
310.219
310.035
310.476
310.299
310.108
310.515
310.328
310.136
310.502
310.295
310.099
310.833
310.761
310.582
310.258
310.804
310.727
310.541
310.215
310.846
310.771
310.591
310.264
310.828
310.746
310.558
310.231
310.864
310.785
310.611
310.294
310.872
310.783
310.599
310.274
310.867
310.769
310.571
310.239
310.887
310.778
310.572
310.237
310.905
310.811
310.63
310.307
310.899
310.798
310.632
310.342
310.876
310.791
310.627
310.328
310.867
310.776
310.621
310.348
310.929
310.825
310.63
310.296
310.927
310.818
310.642
310.344
310.953
310.841
310.638
310.305
310.952
310.835
310.654
310.357
310.827
310.763
310.599
310.294
310.785
310.73
310.59
310.323
310.831
310.765
310.603
310.3
310.787
310.729
310.59
310.326
310.837
310.766
310.609
310.315
310.796
310.733
310.593
310.332
310.838
310.762
310.613
310.336
310.805
310.735
310.597
310.342
310.834
310.753
310.61
310.355
310.72
310.673
310.547
310.355
310.647
310.606
310.476
310.296
310.728
310.678
310.55
310.359
310.655
310.61
310.479
310.298
310.743
310.686
310.555
310.362
310.67
310.617
310.483
310.301
310.765
310.697
310.564
310.37
310.691
310.627
310.489
310.306
310.793
310.713
310.575
310.378
310.714
310.639
310.496
310.31
310.846
310.744
310.59
310.386
310.775
310.675
310.518
310.325
310.82
310.728
310.582
310.381
310.745
310.657
310.507
310.318
310.87
310.758
310.597
310.389
310.803
310.692
310.528
310.334
310.893
310.773
310.607
310.397
310.829
310.708
310.539
310.342
309.771
309.381
309.05
308.783
308.579
309.746
309.361
309.032
308.765
308.562
309.774
309.382
309.051
308.784
308.58
309.751
309.364
309.034
308.767
308.563
309.779
309.385
309.053
308.785
308.581
309.769
309.379
309.048
308.78
308.576
309.759
309.369
309.038
308.77
308.566
309.765
309.373
309.041
308.773
308.568
309.783
309.387
309.054
308.786
308.582
309.763
309.358
309.025
308.757
308.553
309.778
309.38
309.047
308.78
308.575
309.756
309.351
309.019
308.751
308.548
309.784
309.387
309.054
308.786
308.581
309.761
309.355
309.021
308.754
308.55
309.79
309.391
309.057
308.788
308.583
309.763
309.355
309.02
308.752
308.548
309.768
309.371
309.04
308.774
308.57
309.739
309.337
309.006
308.74
308.537
309.769
309.371
309.04
308.773
308.569
309.739
309.337
309.006
308.74
308.536
309.768
309.368
309.036
308.769
308.565
309.739
309.335
309.004
308.738
308.534
309.76
309.356
309.023
308.756
308.552
309.734
309.329
308.998
308.731
308.528
309.742
309.337
309.005
308.738
308.535
308.259
308.2
308.287
308.227
308.339
308.271
308.405
308.325
308.471
308.379
308.579
308.473
308.525
308.42
308.632
308.53
308.687
308.594
307.63
306.949
306.382
305.945
305.65
307.64
306.954
306.381
305.941
305.641
307.643
306.956
306.386
305.948
305.652
307.651
306.959
306.385
305.943
305.643
307.669
306.97
306.395
305.955
305.658
307.676
306.973
306.394
305.949
305.648
307.704
306.99
306.409
305.965
305.666
307.708
306.991
306.406
305.958
305.656
307.745
307.017
306.427
305.978
305.677
307.743
307.013
306.421
305.969
305.665
307.833
307.08
306.474
306.014
305.709
307.824
307.071
306.463
306.002
305.695
307.789
307.048
306.449
305.995
305.692
307.781
307.04
306.44
305.984
305.678
307.877
307.114
306.499
306.035
305.727
307.871
307.107
306.491
306.025
305.715
307.922
307.148
306.526
306.056
305.746
307.922
307.145
306.521
306.049
305.736
310.64
310.546
310.457
310.564
310.406
310.422
310.428
310.45
310.399
310.429
310.272
310.307
310.202
310.241
310.297
310.33
310.333
310.356
310.338
310.356
310.551
310.567
310.232
310.105
310.07
310.056
310.171
310.271
310.131
310.282
310.007
309.827
310.237
310.194
310.052
310.195
310.136
310.12
310.383
310.378
310.291
310.315
310.356
310.382
310.341
310.296
310.139
310.165
310.23
310.257
310.5
310.527
310.465
310.484
310.434
310.431
310.332
310.221
310.337
310.728
310.817
310.852
310.843
310.789
310.7
310.775
310.805
310.789
310.719
310.323
310.365
310.368
310.331
310.25
310.193
310.231
310.231
310.191
310.11
310.159
310.198
310.2
310.162
310.082
310.143
310.181
310.181
310.141
310.061
310.26
310.301
310.304
310.266
310.185
310.463
310.577
310.636
310.645
310.606
310.335
310.459
310.521
310.53
310.485
310.42
310.507
310.552
310.546
310.482
310.195
310.314
310.371
310.375
310.32
310.009
310.13
310.188
310.192
310.137
310.348
310.411
310.434
310.412
310.34
310.321
310.4
310.438
310.426
310.359
310.175
310.251
310.286
310.272
310.205
310.298
310.354
310.371
310.344
310.27
310.245
310.307
310.33
310.308
310.236
310.221
310.274
310.29
310.262
310.188
310.56
310.657
310.705
310.706
310.659
310.502
310.575
310.608
310.593
310.525
310.397
310.455
310.473
310.447
310.373
310.416
310.469
310.483
310.453
310.377
310.465
310.526
310.547
310.523
310.449
310.485
310.54
310.555
310.527
310.451
310.438
310.485
310.494
310.46
310.381
310.392
310.439
310.447
310.413
310.334
310.233
310.279
310.287
310.253
310.175
310.256
310.299
310.304
310.268
310.189
310.329
310.38
310.393
310.362
310.286
310.353
310.401
310.41
310.377
310.299
310.672
310.763
310.802
310.796
310.745
310.651
310.722
310.751
310.732
310.662
310.608
310.69
310.728
310.719
310.661
310.596
310.658
310.68
310.657
310.583
310.54
310.597
310.615
310.588
310.513
310.552
310.623
310.654
310.637
310.568
310.429
310.478
310.487
310.454
310.376
310.314
310.357
310.362
310.326
310.247
310.437
310.488
310.5
310.47
310.393
310.604
310.547
310.6
310.536
310.731
310.664
310.733
310.674
310.595
310.588
310.534
310.546
310.728
310.724
310.667
310.685
310.47
310.338
310.418
310.291
310.469
310.35
310.409
310.291
310.407
310.46
310.436
310.472
310.368
310.313
310.459
310.396
310.488
310.419
310.588
310.521
310.628
310.563
310.335
310.267
310.375
310.297
310.239
310.158
310.216
310.108
310.175
310.073
310.225
310.098
310.172
310.06
310.247
310.076
310.211
310.058
310.142
309.986
310.049
309.891
310.546
310.511
310.517
310.477
310.711
310.699
310.681
310.669
310.358
310.262
310.385
310.297
310.47
310.436
310.411
310.386
310.636
310.632
310.581
310.586
310.311
310.22
310.247
310.165
310.193
310.005
310.038
309.828
310.212
310.009
310.069
309.847
310.147
309.967
309.997
309.793
310.08
309.902
309.941
309.74
310.21
310.153
310.092
310
310.221
310.173
310.075
309.987
310.239
310.214
310.045
309.972
310.553
310.724
310.385
310.205
309.974
310.73
310.568
310.4
310.21
309.936
310.714
310.53
310.318
310.087
309.847
310.055
310.009
309.753
309.662
310.101
310.054
309.77
309.68
310.169
310.13
309.792
309.7
310.726
310.699
310.553
310.521
310.372
310.34
310.153
310.113
309.762
309.665
310.713
310.684
310.51
310.447
310.28
310.201
310.014
309.921
309.657
309.54
310.46
310.352
310.43
310.319
310.69
310.675
310.664
310.654
310.171
310.016
310.207
310.06
310.403
310.276
310.353
310.217
310.632
310.615
310.587
310.565
310.143
309.969
310.088
309.904
309.862
309.664
309.471
309.225
309.916
309.724
309.544
309.313
309.819
309.615
309.409
309.155
309.779
309.561
309.373
309.123
309.987
309.945
309.713
309.703
310.032
309.984
309.724
309.717
310.097
310.03
309.735
309.724
310.644
310.547
310.462
310.371
310.288
310.209
310.07
309.996
309.713
309.705
310.627
310.522
310.359
310.263
310.124
310.05
309.886
309.848
309.639
309.647
310.938
310.941
310.879
310.903
310.845
310.848
310.783
310.808
311.003
311.047
310.946
310.992
311.001
311.043
310.94
310.984
310.949
311.001
310.958
310.996
311.033
310.983
310.848
310.782
310.754
310.69
310.877
310.803
310.901
310.834
310.913
310.844
311.072
311.085
311.019
311.034
311.072
311.089
311.016
311.037
311.07
311.094
311.027
311.058
310.964
311.001
310.903
310.951
310.956
310.958
310.929
310.938
310.851
310.851
310.821
310.826
311
311.012
311.025
311.029
310.888
310.908
310.839
310.871
310.778
310.792
310.727
310.75
310.961
310.986
310.915
310.953
311.049
311.078
311.053
311.065
311.072
311.093
311.066
311.075
311.012
311.049
311.03
311.048
310.968
311.015
311.001
311.024
311.096
311.088
311.105
311.09
311.092
311.083
311.104
311.088
311.083
311.075
311.1
311.086
310.967
310.863
311.034
311.077
311.092
310.862
310.962
311.028
311.07
311.082
310.864
310.967
311.034
311.07
311.075
311.051
310.986
311.046
310.977
311.051
310.991
311.05
310.983
311.051
310.997
311.054
310.993
310.861
310.834
310.96
310.928
311.02
310.98
311.055
311.009
311.057
311.001
310.869
310.856
310.969
310.952
311.031
311.002
311.059
311.016
311.053
310.997
310.97
310.969
310.946
310.956
310.865
310.873
310.836
310.858
311.01
310.998
311.03
311.01
310.909
310.927
310.872
310.887
310.797
310.825
310.756
310.782
310.978
310.972
310.945
310.935
311.038
311.003
311.028
310.972
311.053
311.012
311.043
310.984
311.014
310.981
311.008
310.95
310.982
310.947
310.983
310.924
310.906
310.831
310.876
310.788
310.917
310.836
310.883
310.79
310.926
310.837
310.895
310.787
310.779
310.681
310.867
310.767
310.916
310.815
310.938
310.834
310.902
310.775
310.809
310.696
310.898
310.78
310.935
310.812
310.934
310.806
310.888
310.744
311.032
310.896
310.673
310.319
310.986
310.85
310.626
310.272
311.035
310.899
310.677
310.321
310.991
310.856
310.634
310.281
311.037
310.902
310.691
310.346
311.009
310.877
310.663
310.317
310.959
310.832
310.615
310.268
310.92
310.8
310.587
310.248
311.024
310.892
310.686
310.347
311
310.868
310.682
310.378
311.032
310.897
310.7
310.377
311.006
310.87
310.687
310.394
311.005
310.877
310.667
310.322
310.989
310.861
310.673
310.369
310.979
310.859
310.651
310.315
310.973
310.85
310.664
310.365
311.048
310.911
310.7
310.362
311.027
310.89
310.699
310.399
311.045
310.908
310.7
310.365
311.023
310.886
310.696
310.398
311.038
310.901
310.701
310.375
311.017
310.88
310.692
310.399
311.023
310.887
310.698
310.392
311.008
310.871
310.689
310.404
311.003
310.866
310.688
310.409
310.978
310.842
310.661
310.441
310.914
310.778
310.594
310.388
310.978
310.842
310.662
310.442
310.914
310.777
310.593
310.388
310.977
310.84
310.659
310.44
310.912
310.775
310.591
310.386
310.975
310.837
310.659
310.44
310.91
310.772
310.588
310.384
310.971
310.833
310.657
310.441
310.906
310.766
310.584
310.381
310.949
310.814
310.64
310.426
310.89
310.752
310.573
310.37
310.962
310.824
310.649
310.434
310.901
310.761
310.58
310.377
310.933
310.801
310.628
310.415
310.873
310.739
310.562
310.361
310.914
310.787
310.617
310.406
310.852
310.724
310.55
310.351
309.807
309.403
309.064
308.793
308.587
309.781
309.382
309.045
308.774
308.568
309.807
309.402
309.064
308.793
308.587
309.781
309.382
309.046
308.775
308.569
309.809
309.403
309.064
308.793
308.587
309.794
309.394
309.058
308.787
308.581
309.777
309.38
309.044
308.774
308.569
309.772
309.377
309.043
308.774
308.569
309.806
309.401
309.063
308.792
308.586
309.783
309.37
309.032
308.762
308.557
309.805
309.396
309.057
308.786
308.581
309.78
309.366
309.028
308.757
308.552
309.799
309.397
309.06
308.79
308.584
309.775
309.364
309.027
308.757
308.552
309.796
309.395
309.059
308.789
308.584
309.767
309.358
309.022
308.753
308.549
309.806
309.395
309.055
308.783
308.577
309.778
309.36
309.021
308.75
308.544
309.804
309.393
309.053
308.782
308.576
309.777
309.359
309.02
308.749
308.544
309.8
309.387
309.048
308.777
308.571
309.773
309.356
309.017
308.746
308.541
309.788
309.373
309.034
308.763
308.558
309.765
309.347
309.009
308.739
308.534
309.769
309.353
309.015
308.745
308.54
309.12
309.051
309.11
309.04
309.088
309.016
309.052
308.982
308.995
308.934
308.848
308.77
308.914
308.846
308.791
308.704
308.739
308.651
308.251
307.386
306.703
306.196
305.865
308.27
307.396
306.704
306.193
305.857
308.243
307.38
306.699
306.192
305.862
308.259
307.388
306.699
306.188
305.853
308.224
307.368
306.69
306.186
305.857
308.241
307.376
306.691
306.182
305.848
308.196
307.349
306.676
306.175
305.848
308.215
307.358
306.679
306.172
305.84
308.156
307.322
306.657
306.16
305.835
308.182
307.336
306.663
306.16
305.83
308.06
307.255
306.608
306.122
305.803
308.077
307.266
306.612
306.121
305.798
308.109
307.29
306.634
306.143
305.82
308.134
307.305
306.641
306.143
305.816
308.013
307.22
306.581
306.101
305.784
308.022
307.225
306.582
306.098
305.778
307.967
307.183
306.553
306.078
305.765
307.971
307.184
306.551
306.073
305.757
310.724
310.635
310.706
310.799
310.937
310.879
310.937
310.872
310.845
310.777
310.845
310.787
309.64
309.658
309.704
309.775
309.872
309.989
309.634
309.652
309.695
309.762
309.85
309.954
309.596
309.531
309.617
309.554
309.667
309.611
309.748
309.704
309.857
309.824
309.983
309.948
310.115
310.235
310.34
310.428
310.495
310.543
310.066
310.175
310.274
310.358
310.424
310.469
309.72
309.752
309.746
309.703
309.623
309.739
309.77
309.765
309.722
309.642
309.784
309.816
309.811
309.769
309.688
309.857
309.89
309.885
309.843
309.762
309.955
309.989
309.985
309.943
309.863
310.074
310.11
310.107
310.066
309.985
309.714
309.746
309.74
309.698
309.618
309.732
309.764
309.758
309.716
309.636
309.775
309.808
309.803
309.76
309.68
309.843
309.876
309.872
309.83
309.75
309.933
309.967
309.964
309.922
309.842
310.039
310.075
310.073
310.032
309.952
309.676
309.707
309.701
309.659
309.579
309.61
309.641
309.635
309.593
309.514
309.696
309.728
309.722
309.68
309.6
309.633
309.665
309.659
309.617
309.537
309.747
309.779
309.774
309.732
309.652
309.691
309.723
309.718
309.675
309.596
309.829
309.862
309.858
309.815
309.735
309.785
309.818
309.814
309.771
309.691
309.94
309.974
309.97
309.928
309.848
309.906
309.941
309.937
309.896
309.815
310.068
310.104
310.102
310.061
309.98
310.032
310.068
310.067
310.026
309.946
310.202
310.241
310.241
310.201
310.12
310.326
310.368
310.371
310.334
310.254
310.436
310.482
310.49
310.456
310.377
310.53
310.583
310.596
310.566
310.488
310.604
310.663
310.681
310.654
310.579
310.657
310.719
310.74
310.715
310.641
310.153
310.192
310.192
310.152
310.072
310.266
310.307
310.31
310.272
310.192
310.368
310.413
310.419
310.384
310.305
310.456
310.506
310.515
310.483
310.404
310.526
310.579
310.592
310.561
310.484
310.574
310.628
310.643
310.613
310.536
309.649
309.686
309.749
309.839
309.954
310.091
309.643
309.679
309.739
309.824
309.93
310.051
309.605
309.541
309.645
309.584
309.714
309.661
309.815
309.774
309.943
309.914
310.092
310.064
310.234
310.367
310.473
310.546
310.578
310.573
310.175
310.291
310.387
310.454
310.489
310.493
309.729
309.761
309.755
309.712
309.632
309.766
309.797
309.792
309.749
309.669
309.83
309.862
309.856
309.813
309.733
309.921
309.953
309.948
309.905
309.824
310.037
310.071
310.067
310.024
309.942
310.175
310.21
310.207
310.164
310.082
309.723
309.755
309.749
309.706
309.626
309.759
309.791
309.785
309.742
309.662
309.82
309.852
309.847
309.804
309.724
309.906
309.939
309.934
309.891
309.81
310.013
310.047
310.043
310
309.919
310.135
310.17
310.167
310.125
310.043
309.685
309.716
309.711
309.668
309.588
309.62
309.651
309.645
309.603
309.523
309.725
309.756
309.751
309.708
309.628
309.663
309.694
309.689
309.646
309.566
309.795
309.827
309.821
309.778
309.698
309.741
309.773
309.767
309.724
309.644
309.896
309.929
309.924
309.881
309.8
309.856
309.888
309.883
309.84
309.76
310.026
310.06
310.055
310.012
309.931
309.997
310.031
310.026
309.984
309.902
310.177
310.211
310.208
310.165
310.083
310.148
310.183
310.18
310.137
310.055
310.321
310.358
310.357
310.315
310.233
310.457
310.497
310.497
310.457
310.375
310.568
310.612
310.616
310.578
310.497
310.646
310.696
310.705
310.672
310.592
310.685
310.741
310.756
310.727
310.65
310.686
310.747
310.767
310.741
310.666
310.262
310.299
310.298
310.256
310.174
310.381
310.42
310.421
310.381
310.299
310.48
310.523
310.526
310.489
310.408
310.551
310.598
310.606
310.571
310.491
310.59
310.641
310.652
310.62
310.541
310.596
310.65
310.664
310.634
310.557
310.603
310.608
310.383
310.235
310.231
310.194
310.328
310.693
310.653
310.663
310.553
310.546
310.574
310.471
310.456
310.397
310.698
310.673
310.56
310.546
310.614
310.592
310.507
310.488
310.36
310.356
310.471
310.469
310.651
310.638
310.691
310.64
310.621
310.673
310.518
310.399
310.547
310.777
310.861
310.894
310.882
310.825
310.739
310.812
310.84
310.822
310.751
310.473
310.512
310.512
310.471
310.389
310.322
310.358
310.356
310.314
310.232
310.318
310.355
310.354
310.312
310.23
310.28
310.317
310.314
310.272
310.19
310.417
310.455
310.454
310.413
310.33
310.847
310.923
310.951
310.935
310.877
310.802
310.875
310.899
310.879
310.816
310.778
310.84
310.861
310.835
310.759
310.687
310.752
310.77
310.746
310.674
310.645
310.694
310.702
310.667
310.587
310.681
310.735
310.749
310.719
310.641
310.566
310.61
310.616
310.579
310.498
310.552
310.599
310.606
310.57
310.49
310.49
310.534
310.538
310.5
310.419
310.85
310.924
310.951
310.934
310.875
310.783
310.841
310.858
310.83
310.753
310.658
310.705
310.712
310.676
310.596
310.642
310.687
310.693
310.656
310.575
310.715
310.765
310.775
310.741
310.661
310.69
310.738
310.746
310.711
310.63
310.601
310.645
310.649
310.611
310.529
310.581
310.623
310.626
310.587
310.505
310.451
310.491
310.493
310.453
310.371
310.445
310.485
310.485
310.444
310.362
310.565
310.608
310.612
310.574
310.492
310.561
310.603
310.606
310.567
310.485
310.815
310.894
310.924
310.91
310.85
310.759
310.825
310.848
310.825
310.751
310.823
310.891
310.916
310.896
310.829
310.747
310.804
310.819
310.79
310.713
310.723
310.774
310.785
310.752
310.672
310.785
310.844
310.862
310.835
310.759
310.613
310.656
310.66
310.622
310.54
310.489
310.529
310.53
310.49
310.407
310.643
310.688
310.693
310.656
310.575
310.504
310.583
310.616
310.606
310.557
310.457
310.624
310.617
310.752
310.756
310.61
310.598
310.747
310.74
310.484
310.337
310.482
310.351
310.469
310.475
310.375
310.628
310.621
310.758
310.762
310.613
310.601
310.752
310.742
310.477
310.324
310.476
310.341
310.463
310.473
310.366
310.627
310.619
310.76
310.765
310.611
310.597
310.752
310.741
310.471
310.285
310.47
310.307
310.456
310.466
310.338
310.6
310.592
310.735
310.741
310.582
310.566
310.726
310.713
310.434
310.237
310.434
310.26
310.421
310.433
310.296
310.549
310.541
310.684
310.689
310.531
310.512
310.675
310.661
310.383
310.198
310.383
310.216
310.372
310.38
310.251
310.458
310.451
310.589
310.595
310.442
310.426
310.581
310.568
310.301
310.132
310.303
310.149
310.294
310.303
310.184
310.959
310.959
310.867
310.868
310.956
310.953
310.864
310.859
311.024
311.072
311.021
311.065
311.019
311.01
311.049
310.966
310.965
310.874
310.876
310.96
310.955
310.869
310.863
311.034
311.073
311.029
311.063
311.023
311.01
311.047
310.97
310.967
310.876
310.88
310.959
310.952
310.869
310.861
311.03
311.053
311.023
311.044
311.013
311
311.029
310.945
310.941
310.852
310.856
310.931
310.921
310.843
310.834
310.998
311.006
310.989
310.998
310.977
310.961
310.983
310.89
310.886
310.799
310.803
310.874
310.86
310.79
310.78
310.937
310.938
310.928
310.931
310.914
310.896
310.919
310.791
310.786
310.702
310.706
310.775
310.762
310.693
310.683
310.837
310.847
310.828
310.84
310.816
310.801
310.828
309.807
309.832
309.879
309.918
309.979
310.019
310.115
310.148
310.084
310.123
309.977
310.016
309.898
309.934
309.834
309.86
310.012
310.065
310.081
310.154
310.178
310.245
310.242
310.327
309.723
309.584
309.749
309.618
309.791
309.656
309.833
309.705
309.938
309.86
310.011
309.911
309.742
309.825
310.167
310.293
310.237
310.332
310.318
310.426
310.402
310.484
310.024
310.154
310.099
310.199
309.908
310.035
309.422
309.325
309.488
309.387
309.495
309.373
309.575
309.462
309.598
309.433
309.722
309.568
309.82
309.667
309.933
309.777
310.054
310.078
310.164
310.176
310.274
310.303
310.363
310.392
309.971
309.946
309.845
309.843
310.257
310.258
310.342
310.326
310.443
310.467
310.518
310.531
310.076
310.033
310.17
310.103
309.782
309.597
309.718
309.512
309.647
309.458
309.61
309.397
309.895
309.714
309.807
309.604
309.996
309.817
309.877
309.677
309.192
308.981
309.158
308.95
309.26
309.062
309.196
308.997
309.369
309.216
309.257
309.093
309.901
310.159
309.667
309.491
309.299
310.119
309.847
309.567
309.379
309.174
310.192
309.949
309.714
309.492
309.275
308.786
308.687
308.686
308.598
308.887
308.773
308.754
308.659
309.059
308.93
308.869
308.756
310.054
309.946
309.757
309.613
309.482
309.334
309.264
309.119
308.979
308.836
310.143
310.055
309.871
309.723
309.617
309.449
309.365
309.185
309.049
308.863
310.006
309.841
310.126
309.979
310.273
310.219
310.382
310.347
309.855
309.664
309.738
309.535
310.228
310.081
310.295
310.155
310.469
310.436
310.533
310.507
309.961
309.767
310.029
309.839
309.548
309.321
309.171
308.899
309.453
309.214
309.106
308.838
309.635
309.415
309.232
308.965
309.717
309.495
309.317
309.064
308.648
308.599
308.515
308.632
308.606
308.529
308.714
308.653
308.565
308.682
308.65
308.567
308.843
308.766
308.666
308.755
308.711
308.618
309.814
309.664
309.506
309.458
309.326
309.186
309.191
309.075
308.952
309
308.901
308.784
308.813
308.755
308.646
309.931
309.762
309.582
309.523
309.347
309.171
309.246
309.09
308.931
309.024
308.902
308.762
308.819
308.744
308.618
310.473
310.527
310.522
310.592
310.34
310.407
310.396
310.479
310.49
310.595
310.503
310.6
310.525
310.619
310.549
310.637
310.627
310.58
310.658
310.602
310.641
310.681
310.648
310.713
310.546
310.617
310.66
310.723
310.704
310.763
310.705
310.766
310.702
310.797
310.684
310.771
310.719
310.816
310.716
310.804
310.736
310.84
310.764
310.857
310.785
310.866
310.837
310.902
310.596
310.643
310.661
310.712
310.457
310.497
310.531
310.574
310.751
310.812
310.694
310.75
310.723
310.772
310.785
310.825
310.602
310.641
310.67
310.7
310.806
310.865
310.863
310.912
310.826
310.905
310.876
310.921
310.779
310.866
310.822
310.876
310.871
310.94
310.923
310.96
310.921
310.977
310.965
310.994
310.694
310.643
310.785
310.733
310.698
310.644
310.793
310.739
310.702
310.654
310.806
310.757
310.546
310.38
310.65
310.733
310.82
310.343
310.506
310.602
310.684
310.778
310.413
310.575
310.692
310.77
310.832
310.557
310.441
310.647
310.534
310.566
310.454
310.661
310.553
310.585
310.48
310.689
310.587
310.293
310.202
310.467
310.374
310.566
310.471
310.643
310.546
310.732
310.635
310.382
310.326
310.548
310.491
310.661
310.594
310.733
310.653
310.787
310.69
310.649
310.624
310.72
310.713
310.498
310.478
310.582
310.585
310.808
310.778
310.746
310.701
310.775
310.782
310.827
310.84
310.648
310.665
310.707
310.729
310.857
310.84
310.904
310.892
310.86
310.806
310.881
310.801
310.804
310.737
310.838
310.747
310.906
310.864
310.919
310.848
310.945
310.907
310.953
310.891
310.283
310.127
309.981
310.34
310.164
310.017
310.306
310.148
309.999
310.367
310.189
310.036
310.34
310.185
310.033
310.41
310.223
310.059
310.08
309.93
309.77
310.249
310.094
309.929
310.344
310.181
310.013
310.411
310.248
310.085
310.456
310.26
310.081
310.226
310.062
309.879
310.387
310.219
310.035
310.476
310.299
310.108
310.515
310.328
310.136
310.502
310.295
310.098
310.832
310.761
310.581
310.257
310.802
310.725
310.54
310.214
310.846
310.771
310.591
310.264
310.828
310.746
310.558
310.231
310.864
310.785
310.611
310.294
310.872
310.783
310.599
310.274
310.867
310.769
310.571
310.239
310.887
310.778
310.572
310.237
310.905
310.811
310.63
310.307
310.899
310.798
310.632
310.342
310.876
310.791
310.627
310.328
310.867
310.776
310.621
310.348
310.929
310.825
310.63
310.296
310.927
310.818
310.642
310.344
310.953
310.841
310.638
310.305
310.952
310.835
310.654
310.357
310.827
310.763
310.599
310.294
310.785
310.73
310.59
310.323
310.831
310.765
310.603
310.3
310.787
310.729
310.59
310.326
310.837
310.766
310.609
310.315
310.796
310.733
310.593
310.332
310.838
310.762
310.613
310.336
310.805
310.735
310.597
310.342
310.834
310.753
310.61
310.355
310.72
310.673
310.547
310.355
310.647
310.606
310.477
310.296
310.728
310.678
310.55
310.359
310.655
310.61
310.479
310.298
310.743
310.685
310.555
310.362
310.67
310.617
310.483
310.301
310.765
310.697
310.564
310.37
310.691
310.627
310.489
310.306
310.793
310.713
310.575
310.378
310.714
310.639
310.496
310.31
310.846
310.744
310.59
310.386
310.775
310.675
310.518
310.325
310.82
310.728
310.582
310.381
310.745
310.657
310.507
310.318
310.87
310.758
310.597
310.389
310.803
310.692
310.528
310.334
310.893
310.773
310.607
310.397
310.829
310.708
310.539
310.342
309.77
309.381
309.05
308.783
308.579
309.745
309.36
309.031
308.765
308.561
309.774
309.382
309.051
308.784
308.58
309.751
309.364
309.034
308.767
308.563
309.779
309.385
309.053
308.785
308.581
309.769
309.379
309.048
308.78
308.576
309.759
309.369
309.038
308.77
308.566
309.765
309.373
309.041
308.773
308.568
309.783
309.387
309.054
308.786
308.582
309.763
309.358
309.025
308.757
308.553
309.778
309.38
309.047
308.78
308.575
309.756
309.351
309.019
308.751
308.548
309.784
309.387
309.054
308.786
308.581
309.761
309.355
309.022
308.754
308.55
309.79
309.391
309.057
308.788
308.583
309.763
309.355
309.02
308.752
308.548
309.768
309.372
309.041
308.774
308.57
309.739
309.337
309.007
308.74
308.537
309.769
309.371
309.04
308.773
308.569
309.739
309.337
309.006
308.74
308.536
309.768
309.368
309.036
308.769
308.565
309.739
309.335
309.004
308.738
308.534
309.76
309.356
309.023
308.756
308.552
309.734
309.329
308.998
308.731
308.528
309.742
309.337
309.005
308.738
308.535
308.258
308.199
308.287
308.227
308.339
308.271
308.404
308.325
308.471
308.378
308.579
308.473
308.525
308.42
308.632
308.53
308.686
308.594
307.63
306.949
306.382
305.945
305.649
307.639
306.954
306.381
305.941
305.641
307.643
306.956
306.386
305.948
305.652
307.651
306.959
306.385
305.943
305.643
307.669
306.97
306.395
305.955
305.658
307.676
306.973
306.394
305.949
305.648
307.704
306.99
306.409
305.965
305.666
307.708
306.991
306.406
305.958
305.656
307.745
307.016
306.427
305.978
305.677
307.743
307.013
306.421
305.969
305.665
307.833
307.08
306.473
306.014
305.709
307.823
307.071
306.463